<?xml version="1.0"?>
<VTKFile type="UnstructuredGrid"  version="0.1"  >
<UnstructuredGrid>
<Piece  NumberOfPoints="505" NumberOfCells="928">
<Points>
<DataArray  type="Float32"  NumberOfComponents="3"  format="ascii">
0 0 0
1 0 0
0 1 0
1 0.5 0
0.5 0.5 0
0.5 1 0
0.1 0 0
0.2 0 0
0.3 0 0
0.4 0 0
0.5 0 0
0.6 0 0
0.7 0 0
0.8 0 0
0.9 0 0
0 0.9 0
0 0.8 0
0 0.7 0
0 0.6 0
0 0.5 0
0 0.4 0
0 0.3 0
0 0.2 0
0 0.1 0
0.9 0.5 0
0.8 0.5 0
0.7 0.5 0
0.6 0.5 0
0.5 0.6 0
0.5 0.7 0
0.5 0.8 0
0.5 0.9 0
0.1 1 0
0.2 1 0
0.3 1 0
0.4 1 0
1 0.1 0
1 0.2 0
1 0.3 0
1 0.4 0
0.300178 0.296564 0
0.247566 0.664879 0
0.639694 0.259804 0
0.06564 0.06472 0
0.04439 0.954144 0
0.932418 0.064715 0
0.951013 0.456419 0
0.437622 0.939659 0
0.195334 0.464441 0
0.483382 0.329596 0
0.834786 0.236295 0
0.307228 0.81139 0
0.178229 0.173372 0
0.366998 0.134199 0
0.547485 0.14214 0
0.124832 0.74927 0
0.160163 0.896658 0
0.342556 0.535243 0
0.147651 0.342018 0
0.729803 0.127878 0
0.725981 0.357775 0
0.121369 0.600441 0
0.372954 0.70814 0
0.908503 0.151525 0
0.89851 0.333305 0
0.556275 0.400898 0
0.259184 0.092178 0
0.46329 0.194362 0
0.423773 0.869712 0
0.22823 0.818162 0
0.081292 0.144905 0
0.082979 0.831935 0
0.549999 0.065419 0
0.371537 0.407588 0
0.642628 0.097865 0
0.459835 0.086595 0
0.108565 0.418567 0
0.273082 0.902112 0
0.256598 0.556659 0
0.11951 0.509541 0
0.234147 0.370527 0
0.097453 0.253261 0
0.638438 0.342389 0
0.554656 0.224779 0
0.373432 0.237603 0
0.339663 0.62579 0
0.27079 0.747786 0
0.733958 0.266592 0
0.928527 0.244458 0
0.853116 0.071497 0
0.818426 0.404817 0
0.280194 0.200604 0
0.417859 0.565185 0
0.147241 0.079056 0
0.389149 0.789957 0
0.42808 0.654642 0
0.343469 0.059202 0
0.086765 0.684153 0
0.162043 0.675011 0
0.809252 0.14201 0
0.364337 0.928607 0
0.077532 0.916553 0
0.159064 0.807906 0
0.302124 0.454032 0
0.205909 0.272176 0
0.449664 0.407415 0
0.66041 0.423241 0
0.562201 0.303789 0
0.802658 0.320211 0
0.614551 0.182931 0
0.390944 0.331035 0
0.687136 0.18846 0
0.070577 0.342498 0
0.741087 0.437361 0
0.176989 0.547528 0
0.710251 0.07409 0
0.192845 0.608574 0
0.171114 0.398277 0
0.058959 0.753084 0
0.904 0.425508 0
0.438039 0.730373 0
0.057223 0.475897 0
0.058502 0.552106 0
0.330493 0.750997 0
0.312295 0.699131 0
0.684882 0.307111 0
0.053312 0.627311 0
0.198798 0.743695 0
0.392326 0.069953 0
0.351519 0.860283 0
0.397134 0.477694 0
0.319385 0.371198 0
0.767351 0.069505 0
0.441954 0.271171 0
0.759504 0.192785 0
0.855661 0.457701 0
0.500847 0.264652 0
0.916209 0.0323575 0
0.966209 0.0323575 0
0.95 0 0
0.578137 0.450449 0
0.528137 0.450449 0
0.55 0.5 0
0.03282 0.08236 0
0.03282 0.03236 0
0 0.05 0
0.502969 0.404157 0
0.474832 0.453708 0
0.468811 0.91983 0
0.468811 0.96983 0
0.5 0.95 0
0.072195 0.977072 0
0.022195 0.977072 0
0.05 1 0
0.022195 0.927072 0
0 0.95 0
0.060961 0.935348 0
0.038766 0.908276 0
0.106441 0.071888 0
0.123621 0.039528 0
0.08282 0.03236 0
0.0414895 0.815967 0
0.0414895 0.865968 0
0 0.85 0
0.173621 0.039528 0
0.15 0 0
0.05 0 0
0.301327 0.07569 0
0.321735 0.029601 0
0.279592 0.046089 0
0.070969 0.792509 0
0.0294795 0.776542 0
0.0294795 0.726542 0
0 0.75 0
0.114267 0.111981 0
0.073466 0.104813 0
0.229592 0.046089 0
0.25 0 0
0.371735 0.029601 0
0.35 0 0
0.479917 0.0432975 0
0.429918 0.0432975 0
0.45 0 0
0.461562 0.140479 0
0.413416 0.110397 0
0.415144 0.16428 0
0.574999 0.0327095 0
0.525 0.0327095 0
0.55 0 0
0.596313 0.081642 0
0.621314 0.0489325 0
0.927507 0.440964 0
0.902 0.462754 0
0.925507 0.47821 0
0.0700385 0.655732 0
0.026656 0.663655 0
0.0433825 0.692076 0
0.026656 0.613655 0
0 0.65 0
0.276766 0.370862 0
0.309781 0.333881 0
0.267162 0.333545 0
0.458929 0.582593 0
0.458929 0.532593 0
0.5 0.55 0
0.422969 0.609913 0
0.46404 0.627321 0
0.43306 0.692508 0
0.46902 0.715186 0
0.46404 0.677321 0
0.46902 0.765186 0
0.5 0.75 0
0.180082 0.948329 0
0.130082 0.948329 0
0.15 1 0
0.87983 0.441605 0
0.87783 0.478851 0
0.975507 0.42821 0
0.975507 0.47821 0
1 0.45 0
0.676439 0.0859775 0
0.705125 0.037045 0
0.671314 0.0489325 0
0.779756 0.421089 0
0.770544 0.46868 0
0.809213 0.452408 0
0.738801 0.0717975 0
0.733675 0.0347525 0
0.95 0.5 0
0.720544 0.46868 0
0.75 0.5 0
0.029251 0.526053 0
0.029251 0.576053 0
0 0.55 0
0.089006 0.530824 0
0.0899355 0.576273 0
0.12044 0.554991 0
0.461886 0.884856 0
0.461886 0.834856 0
0.5 0.85 0
0.089571 0.380533 0
0.0352885 0.371249 0
0.0542825 0.409284 0
0.918515 0.197991 0
0.964263 0.222229 0
0.954252 0.175762 0
0.630205 0.46162 0
0.680205 0.46162 0
0.65 0.5 0
0.0352885 0.321249 0
0 0.35 0
0.0487265 0.226631 0
0.0487265 0.276631 0
0 0.25 0
0.286541 0.951056 0
0.236541 0.951056 0
0.25 1 0
0.382169 0.964303 0
0.332168 0.964303 0
0.35 1 0
0.966209 0.0823575 0
1 0.05 0
0.876558 0.0357485 0
0.826558 0.0357485 0
0.85 0 0
0.710547 0.227526 0
0.663415 0.224132 0
0.686826 0.263198 0
0.964263 0.272229 0
1 0.25 0
0.40098 0.934133 0
0.418811 0.96983 0
0.45 1 0
0.326813 0.219104 0
0.290186 0.248584 0
0.336805 0.267084 0
0.243052 0.23639 0
0.253043 0.28437 0
0.224721 0.582616 0
0.220205 0.636726 0
0.252082 0.610769 0
0.92046 0.10812 0
0.954252 0.125762 0
0.66166 0.32475 0
0.662288 0.283458 0
0.639066 0.301096 0
0.949255 0.366653 0
0.949255 0.316653 0
1 0.35 0
0.291542 0.723459 0
0.27993 0.682005 0
0.259178 0.706333 0
0.394055 0.89916 0
0.430698 0.904686 0
0.531524 0.28422 0
0.492115 0.297124 0
0.522791 0.316692 0
0.040646 0.122453 0
0.040646 0.172453 0
0 0.15 0
1 0.15 0
0.151681 0.262718 0
0.192069 0.222774 0
0.137841 0.213317 0
0.558428 0.264284 0
0.600947 0.281797 0
0.597175 0.242291 0
0.508973 0.20957 0
0.551071 0.183459 0
0.505387 0.168251 0
0.118847 0.906605 0
0.088766 0.958276 0
0.3123 0.881198 0
0.329373 0.835836 0
0.290155 0.856751 0
0.18042 0.709353 0
0.223182 0.704287 0
0.204805 0.669945 0
0.114037 0.464054 0
0.157422 0.486991 0
0.15195 0.441504 0
0.279361 0.505346 0
0.248729 0.459236 0
0.225966 0.51055 0
0.423399 0.442555 0
0.448567 0.488847 0
0.892767 0.068106 0
0.65 0 0
0.901255 0.379406 0
0.952 0.412754 0
0.858877 0.146767 0
0.822019 0.189153 0
0.871644 0.19391 0
0.14825 0.528535 0
0.186162 0.505985 0
0.178931 0.775801 0
0.161815 0.746482 0
0.141948 0.778588 0
0.29813 0.591225 0
0.34111 0.580516 0
0.299577 0.545951 0
0.913519 0.288882 0
0.881657 0.240376 0
0.866648 0.2848 0
0.664882 0.143162 0
0.708469 0.158169 0
0.686215 0.112871 0
0.768308 0.293401 0
0.818722 0.278253 0
0.784372 0.251443 0
0.407693 0.254387 0
0.452622 0.232766 0
0.418361 0.215983 0
0.559238 0.352343 0
0.519829 0.365247 0
0.269689 0.146391 0
0.323596 0.167402 0
0.313091 0.113188 0
0.367897 0.0645775 0
0.396163 0.0349765 0
0.220028 0.321352 0
0.17678 0.307097 0
0.190899 0.356272 0
0.584604 0.203855 0
0.581018 0.162535 0
0.250656 0.860137 0
0.267729 0.814776 0
0.359821 0.770477 0
0.31886 0.781193 0
0.348189 0.800674 0
0.124404 0.679582 0
0.141706 0.637726 0
0.104067 0.642297 0
0.216622 0.899385 0
0.203213 0.085617 0
0.162735 0.126214 0
0.218707 0.132775 0
0.0893725 0.199083 0
0.129761 0.159139 0
0.121022 0.819921 0
0.103905 0.790602 0
0.193647 0.813034 0
0.159614 0.852282 0
0.194196 0.85741 0
0.650843 0.185696 0
0.628589 0.140398 0
0.504917 0.076007 0
0.50366 0.114367 0
0.548742 0.103779 0
0.378761 0.595487 0
0.380208 0.550214 0
0.466523 0.368506 0
0.783675 0.0347525 0
0.75 0 0
0.595056 0.120002 0
0.20263 0.384402 0
0.183224 0.431359 0
0.214741 0.417484 0
0.084015 0.29788 0
0.109114 0.342258 0
0.122552 0.29764 0
0.370334 0.82512 0
0.387646 0.864998 0
0.406461 0.829835 0
0.355164 0.351116 0
0.345461 0.389393 0
0.38124 0.369312 0
0.177444 0.641792 0
0.157107 0.604507 0
0.0286115 0.437949 0
0.0286115 0.487949 0
0 0.45 0
0.184917 0.578051 0
0.216794 0.552094 0
0.310754 0.412615 0
0.268135 0.41228 0
0.13984 0.408422 0
0.159382 0.370147 0
0.128108 0.380293 0
0.784378 0.167398 0
0.797145 0.21454 0
0.649424 0.382815 0
0.693196 0.390508 0
0.682209 0.350082 0
0.471401 0.267911 0
0.482069 0.229507 0
0.600319 0.323089 0
0.597356 0.371644 0
0.370215 0.185901 0
0.420304 0.369225 0
0.410601 0.407502 0
0.5 0.65 0
0.293615 0.645334 0
0.325979 0.66246 0
0.342624 0.703635 0
0.356309 0.666965 0
0.24951 0.782974 0
0.289009 0.779588 0
0.810542 0.362514 0
0.76432 0.338993 0
0.772204 0.381296 0
0.70942 0.286852 0
0.705431 0.332443 0
0.729969 0.312184 0
0.831184 0.106754 0
0.88081 0.111511 0
0.700748 0.430301 0
0.733534 0.397568 0
0.850584 0.326758 0
0.229212 0.186988 0
0.407496 0.52144 0
0.369845 0.506468 0
0.413594 0.760165 0
0.405497 0.719256 0
0.381051 0.749049 0
0.444574 0.794979 0
0.383872 0.640216 0
0.400517 0.681391 0
0.355233 0.0967005 0
0.42608 0.078274 0
0.379662 0.102076 0
0.055907 0.589708 0
0.0873405 0.613876 0
0.072862 0.718619 0
0.0918955 0.751177 0
0.105798 0.716711 0
0.234794 0.74574 0
0.213514 0.780928 0
0.143437 0.712141 0
0.72332 0.190623 0
0.744653 0.160332 0
0.788301 0.105758 0
0.748577 0.0986915 0
0.769527 0.134944 0
0.357928 0.894445 0
0.318709 0.915359 0
0.0802555 0.874244 0
0.121571 0.864297 0
0.32234 0.494638 0
0.349629 0.465863 0
0.384335 0.442641 0
0.336831 0.43081 0
0.608343 0.412069 0
0.527752 0.244716 0
0.858468 0.369061 0
0.627123 0.221367 0
0.382188 0.284319 0
0.345561 0.3138 0
0.437163 0.330315 0
0.746731 0.229689 0
0.149179 0.573985 0
0.720027 0.100984 0
0.810234 0.070501 0
0.861213 0.415162 0
0.827831 0.478851 0
0.85 0.5 0
0.082894 0.447232 0
0.0883665 0.492719 0
0.0578625 0.514002 0
0.300642 0.749391 0
0.351723 0.729569 0
0.321394 0.725064 0
0.416449 0.301103 0
0.462668 0.300384 0
0.837044 0.431259 0
</DataArray>
</Points>
<Cells>
<DataArray  type="UInt32"  Name="connectivity"  format="ascii">
1 138 139 
14 137 139 
45 137 138 
137 138 139 
4 141 142 
27 140 142 
65 140 141 
140 141 142 
0 144 145 
23 143 145 
43 143 144 
143 144 145 
4 141 147 
65 141 146 
105 146 147 
141 146 147 
5 149 150 
31 148 150 
47 148 149 
148 149 150 
2 152 153 
32 151 153 
44 151 152 
151 152 153 
2 152 155 
15 154 155 
44 152 154 
152 154 155 
15 154 157 
44 154 156 
101 156 157 
154 156 157 
6 159 160 
43 158 160 
93 158 159 
158 159 160 
15 162 163 
16 161 163 
71 161 162 
161 162 163 
6 159 165 
7 164 165 
93 159 164 
159 164 165 
[...]
<PointData  Scalars="u"> 
<DataArray  type="Float32"  Name="u"  format="ascii">
 -4.730819e-01
 0.000000e+00
 -9.560399e-01
 0.000000e+00
 -4.952640e-01
 -9.560399e-01
 -4.722740e-01
 -4.556239e-01
 -4.255146e-01
 -3.853296e-01
 -3.365049e-01
 -2.801894e-01
 -2.167315e-01
 -1.481986e-01
 -7.610757e-02
 -8.842380e-01
 -8.127494e-01
 -7.431758e-01
 -6.769225e-01
 -6.161729e-01
 -5.635148e-01
 -5.211293e-01
 -4.906185e-01
 -4.739229e-01
 -7.099367e-02
 -1.476278e-01
 -2.295620e-01
 -3.200889e-01
 -6.469425e-01
 -7.281932e-01
 -8.056355e-01
 -8.811115e-01
 -9.560399e-01
 -9.560399e-01
 -9.560399e-01
 -9.560399e-01
 0.000000e+00
 0.000000e+00
 0.000000e+00
 0.000000e+00
 -4.760053e-01
 -7.109436e-01
 -2.691588e-01
 -4.731203e-01
 -9.231120e-01
 -5.112327e-02
 -3.432704e-02
 -9.108262e-01
 -5.842282e-01
 -3.968815e-01
 -1.224074e-01
 -8.162663e-01
 -4.739263e-01
 -4.083642e-01
 -3.159582e-01
 -7.762761e-01
 -8.812261e-01
 -6.015159e-01
 -5.307064e-01
 -1.959975e-01
 -2.088298e-01
 -6.751188e-01
 -7.360060e-01
 -6.808324e-02
 -7.468831e-02
 -3.579859e-01
 -4.426459e-01
 -3.719672e-01
 -8.583813e-01
 -8.231708e-01
 -4.800295e-01
 -8.353698e-01
 -3.096385e-01
 -5.001694e-01
 -2.537154e-01
 -3.597010e-01
 -5.700539e-01
 -8.839510e-01
 -6.329765e-01
 -6.188164e-01
 -5.270032e-01
 -5.040678e-01
 -2.793131e-01
 -3.232074e-01
 -4.270863e-01
 -6.735979e-01
 -7.702753e-01
 -1.989192e-01
 -5.293220e-02
 -1.088408e-01
 -1.354370e-01
 -4.535571e-01
 -6.140655e-01
 -4.667279e-01
 -7.984284e-01
 -6.916132e-01
 -4.107181e-01
 -7.320203e-01
 -7.232337e-01
 -1.400818e-01
 -9.027863e-01
 -8.960195e-01
 -8.172514e-01
 -5.547014e-01
 -4.942129e-01
 -4.540632e-01
 -2.652373e-01
 -3.334229e-01
 -1.476578e-01
 -2.777008e-01
 -4.521003e-01
 -2.283320e-01
 -5.375229e-01
 -1.968661e-01
 -6.370203e-01
 -2.088022e-01
 -6.757470e-01
 -5.528253e-01
 -7.798531e-01
 -6.968165e-02
 -7.519248e-01
 -6.026556e-01
 -6.469631e-01
 -7.703677e-01
 -7.320258e-01
 -2.392406e-01
 -6.946282e-01
 -7.701425e-01
 -3.907956e-01
 -8.519309e-01
 -5.372994e-01
 -5.018624e-01
 -1.696565e-01
 -4.030314e-01
 -1.768190e-01
 -1.056643e-01
 -3.662827e-01
 -6.365040e-02
 -2.658726e-02
 -3.934386e-02
 -3.438916e-01
 -3.981106e-01
 -3.709501e-01
 -4.738366e-01
 -4.730866e-01
 -4.720559e-01
 -4.088551e-01
 -4.647361e-01
 -8.959237e-01
 -9.333721e-01
 -9.184782e-01
 -9.396027e-01
 -9.396174e-01
 -9.560399e-01
 -9.036664e-01
 -9.201736e-01
 -9.095969e-01
 -8.901389e-01
 -4.710497e-01
 -4.687713e-01
 -4.723807e-01
 -8.241707e-01
 -8.597846e-01
 -8.483386e-01
 -4.610176e-01
 -4.659316e-01
 -4.741006e-01
 -4.276204e-01
 -4.179091e-01
 -4.332196e-01
 -8.074604e-01
 -7.963330e-01
 -7.615083e-01
 -7.776930e-01
 -4.734257e-01
 -4.753787e-01
 -4.481791e-01
 -4.419704e-01
 -3.979689e-01
 -4.065838e-01
 -3.473914e-01
 -3.721992e-01
 -3.618830e-01
 -3.640737e-01
 -3.845726e-01
 -3.910536e-01
 -2.946340e-01
 -3.231291e-01
 -3.092586e-01
 -2.825229e-01
 -2.665738e-01
 -5.188434e-02
 -7.043135e-02
 -5.245157e-02
 -7.131683e-01
 -7.187237e-01
 -7.379059e-01
 -6.858295e-01
 -7.095090e-01
 -5.157632e-01
 -4.878711e-01
 -5.015471e-01
 -6.296003e-01
 -5.825496e-01
 -6.097304e-01
 -6.542546e-01
 -6.689399e-01
 -7.221212e-01
 -7.399417e-01
 -7.098314e-01
 -7.788393e-01
 -7.672543e-01
 -9.185810e-01
 -9.187944e-01
 -9.560399e-01
 -8.763268e-02
 -8.814091e-02
 -1.668411e-02
 -1.624567e-02
 0.000000e+00
 -2.313972e-01
 -2.125511e-01
 -2.347245e-01
 -1.657943e-01
 -1.720728e-01
 -1.418360e-01
 -1.893492e-01
 -1.934201e-01
 -3.391350e-02
 -2.131410e-01
 -1.877939e-01
 -6.315401e-01
 -6.619410e-01
 -6.457297e-01
 -6.331651e-01
 -6.610462e-01
 -6.462479e-01
 -8.697209e-01
 -8.320332e-01
 -8.435594e-01
 -5.532045e-01
 -5.505926e-01
 -5.682422e-01
 -6.058032e-02
 -2.678941e-02
 -3.458599e-02
 -2.925855e-01
 -2.477587e-01
 -2.735331e-01
 -5.296370e-01
 -5.408406e-01
 -4.982791e-01
 -5.134573e-01
 -5.043284e-01
 -9.199045e-01
 -9.202350e-01
 -9.560399e-01
 -9.293193e-01
 -9.294710e-01
 -9.560399e-01
 -2.618004e-02
 0.000000e+00
 -9.254800e-02
 -1.285525e-01
 -1.124840e-01
 -2.141339e-01
 -2.480615e-01
 -2.343624e-01
 -2.626373e-02
 0.000000e+00
 -9.067592e-01
 -9.334009e-01
 -9.560399e-01
 -4.414943e-01
 -4.630904e-01
 -4.517693e-01
 -4.740042e-01
 -4.864103e-01
 -6.549937e-01
 -6.929272e-01
 -6.716472e-01
 -5.954482e-02
 -3.489286e-02
 -2.590160e-01
 -2.547739e-01
 -2.745033e-01
 -3.624952e-02
 -3.679787e-02
 0.000000e+00
 -7.513290e-01
 -7.212152e-01
 -7.403539e-01
 -8.806401e-01
 -8.846372e-01
 -3.509768e-01
 -3.807914e-01
 -3.652817e-01
 -4.775515e-01
 -4.855289e-01
 -4.803218e-01
 0.000000e+00
 -5.011684e-01
 -4.825597e-01
 -4.890397e-01
 -3.281330e-01
 -3.008367e-01
 -2.973727e-01
 -3.489455e-01
 -3.187808e-01
 -3.438761e-01
 -8.887102e-01
 -9.260494e-01
 -8.680090e-01
 -8.340260e-01
 -8.502425e-01
 -7.464300e-01
 -7.408132e-01
 -7.174002e-01
 -5.933998e-01
 -6.022698e-01
 -5.775909e-01
 -5.939325e-01
 -5.712668e-01
 -6.071182e-01
 -4.952059e-01
 -5.265791e-01
 -8.014581e-02
 -2.492236e-01
 -7.229323e-02
 -3.397253e-02
 -1.042852e-01
 -1.313033e-01
 -9.501528e-02
 -6.279056e-01
 -6.100218e-01
 -7.937767e-01
 -7.733570e-01
 -7.966519e-01
 -6.519302e-01
 -6.376518e-01
 -6.183218e-01
 -6.374995e-02
 -8.764329e-02
 -9.882345e-02
 -2.409022e-01
 -2.117621e-01
 -2.254351e-01
 -1.736503e-01
 -1.348994e-01
 -1.602687e-01
 -4.158635e-01
 -3.864050e-01
 -4.001791e-01
 -3.456373e-01
 -3.810350e-01
 -4.462525e-01
 -4.312183e-01
 -4.270088e-01
 -4.010187e-01
 -3.874497e-01
 -5.089075e-01
 -5.123428e-01
 -5.298492e-01
 -3.001846e-01
 -2.973434e-01
 -8.534177e-01
 -8.197325e-01
 -7.842259e-01
 -7.934238e-01
 -8.073103e-01
 -7.278917e-01
 -6.987615e-01
 -7.033797e-01
 -8.826212e-01
 -4.568451e-01
 -4.689422e-01
 -4.584085e-01
 -4.900471e-01
 -4.784716e-01
 -8.264419e-01
 -8.057916e-01
 -8.202339e-01
 -8.491657e-01
 -8.523794e-01
 -2.533477e-01
 -2.648191e-01
 -3.353558e-01
 -3.385956e-01
 -3.121485e-01
 -6.450946e-01
 -6.061256e-01
 -4.232187e-01
 -1.589007e-01
 -1.830512e-01
 -2.850272e-01
 -5.405832e-01
 -5.678153e-01
 -5.548746e-01
 -5.196402e-01
 -5.349576e-01
 -5.165073e-01
 -8.253149e-01
 -8.550888e-01
 -8.284425e-01
 -4.778256e-01
 -5.012439e-01
 -4.745898e-01
 -6.995061e-01
 -6.757016e-01
 -5.827305e-01
 -6.095666e-01
 -5.886828e-01
 -6.560499e-01
 -6.353775e-01
 -5.270392e-01
 -5.396561e-01
 -5.620043e-01
 -5.413358e-01
 -5.498129e-01
 -1.582532e-01
 -1.499282e-01
 -2.731537e-01
 -2.365222e-01
 -2.440912e-01
 -3.851395e-01
 -3.690197e-01
 -3.076134e-01
 -3.166854e-01
 -4.158339e-01
 -4.535070e-01
 -4.796441e-01
 -6.880038e-01
 -6.929070e-01
 -7.032671e-01
 -7.338393e-01
 -7.046364e-01
 -7.968875e-01
 -7.931435e-01
 -1.417509e-01
 -1.778531e-01
 -1.720056e-01
 -2.188208e-01
 -2.244685e-01
 -2.041288e-01
 -1.243076e-01
 -8.845521e-02
 -2.305799e-01
 -2.032600e-01
 -1.109318e-01
 -4.654018e-01
 -5.731911e-01
 -5.712194e-01
 -7.752642e-01
 -7.437290e-01
 -7.673535e-01
 -8.017102e-01
 -6.815501e-01
 -7.139650e-01
 -4.088897e-01
 -3.758389e-01
 -3.990254e-01
 -6.703900e-01
 -6.852015e-01
 -7.558355e-01
 -7.781883e-01
 -7.539621e-01
 -7.702418e-01
 -7.964878e-01
 -7.497684e-01
 -2.027698e-01
 -1.864151e-01
 -1.548204e-01
 -1.826064e-01
 -1.682955e-01
 -8.773566e-01
 -8.932567e-01
 -8.656369e-01
 -8.582393e-01
 -5.761821e-01
 -5.472854e-01
 -5.166968e-01
 -5.288309e-01
 -3.112696e-01
 -3.445492e-01
 -1.047465e-01
 -2.735358e-01
 -4.379757e-01
 -4.655350e-01
 -4.266284e-01
 -1.875828e-01
 -6.563354e-01
 -2.023086e-01
 -1.395067e-01
 -1.022320e-01
 -1.264608e-01
 -1.088591e-01
 -5.863762e-01
 -6.109352e-01
 -6.242445e-01
 -7.702756e-01
 -7.533159e-01
 -7.511513e-01
 -4.270106e-01
 -4.004481e-01
 -1.205960e-01
</DataArray> 
</PointData> 
</Piece>
</UnstructuredGrid>
</VTKFile>