<?xml version="1.0"?>
<VTKFile type="UnstructuredGrid"  version="0.1"  >
<UnstructuredGrid>
<Piece  NumberOfPoints="505" NumberOfCells="928">
<Points>
<DataArray  type="Float32"  NumberOfComponents="3"  format="ascii">
0 0 0
1 0 0
0 1 0
1 0.5 0
0.5 0.5 0
0.5 1 0
0.1 0 0
0.2 0 0
0.3 0 0
0.4 0 0
0.5 0 0
0.6 0 0
0.7 0 0
0.8 0 0
0.9 0 0
0 0.9 0
0 0.8 0
0 0.7 0
0 0.6 0
0 0.5 0
0 0.4 0
0 0.3 0
0 0.2 0
0 0.1 0
0.9 0.5 0
0.8 0.5 0
0.7 0.5 0
0.6 0.5 0
0.5 0.6 0
0.5 0.7 0
0.5 0.8 0
0.5 0.9 0
0.1 1 0
0.2 1 0
0.3 1 0
0.4 1 0
1 0.1 0
1 0.2 0
1 0.3 0
1 0.4 0
0.300178 0.296564 0
0.247566 0.664879 0
0.639694 0.259804 0
0.06564 0.06472 0
0.04439 0.954144 0
0.932418 0.064715 0
0.951013 0.456419 0
0.437622 0.939659 0
0.195334 0.464441 0
0.483382 0.329596 0
0.834786 0.236295 0
0.307228 0.81139 0
0.178229 0.173372 0
0.366998 0.134199 0
0.547485 0.14214 0
0.124832 0.74927 0
0.160163 0.896658 0
0.342556 0.535243 0
0.147651 0.342018 0
0.729803 0.127878 0
0.725981 0.357775 0
0.121369 0.600441 0
0.372954 0.70814 0
0.908503 0.151525 0
0.89851 0.333305 0
0.556275 0.400898 0
0.259184 0.092178 0
0.46329 0.194362 0
0.423773 0.869712 0
0.22823 0.818162 0
0.081292 0.144905 0
0.082979 0.831935 0
0.549999 0.065419 0
0.371537 0.407588 0
0.642628 0.097865 0
0.459835 0.086595 0
0.108565 0.418567 0
0.273082 0.902112 0
0.256598 0.556659 0
0.11951 0.509541 0
0.234147 0.370527 0
0.097453 0.253261 0
0.638438 0.342389 0
0.554656 0.224779 0
0.373432 0.237603 0
0.339663 0.62579 0
0.27079 0.747786 0
0.733958 0.266592 0
0.928527 0.244458 0
0.853116 0.071497 0
0.818426 0.404817 0
0.280194 0.200604 0
0.417859 0.565185 0
0.147241 0.079056 0
0.389149 0.789957 0
0.42808 0.654642 0
0.343469 0.059202 0
0.086765 0.684153 0
0.162043 0.675011 0
0.809252 0.14201 0
0.364337 0.928607 0
0.077532 0.916553 0
0.159064 0.807906 0
0.302124 0.454032 0
0.205909 0.272176 0
0.449664 0.407415 0
0.66041 0.423241 0
0.562201 0.303789 0
0.802658 0.320211 0
0.614551 0.182931 0
0.390944 0.331035 0
0.687136 0.18846 0
0.070577 0.342498 0
0.741087 0.437361 0
0.176989 0.547528 0
0.710251 0.07409 0
0.192845 0.608574 0
0.171114 0.398277 0
0.058959 0.753084 0
0.904 0.425508 0
0.438039 0.730373 0
0.057223 0.475897 0
0.058502 0.552106 0
0.330493 0.750997 0
0.312295 0.699131 0
0.684882 0.307111 0
0.053312 0.627311 0
0.198798 0.743695 0
0.392326 0.069953 0
0.351519 0.860283 0
0.397134 0.477694 0
0.319385 0.371198 0
0.767351 0.069505 0
0.441954 0.271171 0
0.759504 0.192785 0
0.855661 0.457701 0
0.500847 0.264652 0
0.916209 0.0323575 0
0.966209 0.0323575 0
0.95 0 0
0.578137 0.450449 0
0.528137 0.450449 0
0.55 0.5 0
0.03282 0.08236 0
0.03282 0.03236 0
0 0.05 0
0.502969 0.404157 0
0.474832 0.453708 0
0.468811 0.91983 0
0.468811 0.96983 0
0.5 0.95 0
0.072195 0.977072 0
0.022195 0.977072 0
0.05 1 0
0.022195 0.927072 0
0 0.95 0
0.060961 0.935348 0
0.038766 0.908276 0
0.106441 0.071888 0
0.123621 0.039528 0
0.08282 0.03236 0
0.0414895 0.815967 0
0.0414895 0.865968 0
0 0.85 0
0.173621 0.039528 0
0.15 0 0
0.05 0 0
0.301327 0.07569 0
0.321735 0.029601 0
0.279592 0.046089 0
0.070969 0.792509 0
0.0294795 0.776542 0
0.0294795 0.726542 0
0 0.75 0
0.114267 0.111981 0
0.073466 0.104813 0
0.229592 0.046089 0
0.25 0 0
0.371735 0.029601 0
0.35 0 0
0.479917 0.0432975 0
0.429918 0.0432975 0
0.45 0 0
0.461562 0.140479 0
0.413416 0.110397 0
0.415144 0.16428 0
0.574999 0.0327095 0
0.525 0.0327095 0
0.55 0 0
0.596313 0.081642 0
0.621314 0.0489325 0
0.927507 0.440964 0
0.902 0.462754 0
0.925507 0.47821 0
0.0700385 0.655732 0
0.026656 0.663655 0
0.0433825 0.692076 0
0.026656 0.613655 0
0 0.65 0
0.276766 0.370862 0
0.309781 0.333881 0
0.267162 0.333545 0
0.458929 0.582593 0
0.458929 0.532593 0
0.5 0.55 0
0.422969 0.609913 0
0.46404 0.627321 0
0.43306 0.692508 0
0.46902 0.715186 0
0.46404 0.677321 0
0.46902 0.765186 0
0.5 0.75 0
0.180082 0.948329 0
0.130082 0.948329 0
0.15 1 0
0.87983 0.441605 0
0.87783 0.478851 0
0.975507 0.42821 0
0.975507 0.47821 0
1 0.45 0
0.676439 0.0859775 0
0.705125 0.037045 0
0.671314 0.0489325 0
0.779756 0.421089 0
0.770544 0.46868 0
0.809213 0.452408 0
0.738801 0.0717975 0
0.733675 0.0347525 0
0.95 0.5 0
0.720544 0.46868 0
0.75 0.5 0
0.029251 0.526053 0
0.029251 0.576053 0
0 0.55 0
0.089006 0.530824 0
0.0899355 0.576273 0
0.12044 0.554991 0
0.461886 0.884856 0
0.461886 0.834856 0
0.5 0.85 0
0.089571 0.380533 0
0.0352885 0.371249 0
0.0542825 0.409284 0
0.918515 0.197991 0
0.964263 0.222229 0
0.954252 0.175762 0
0.630205 0.46162 0
0.680205 0.46162 0
0.65 0.5 0
0.0352885 0.321249 0
0 0.35 0
0.0487265 0.226631 0
0.0487265 0.276631 0
0 0.25 0
0.286541 0.951056 0
0.236541 0.951056 0
0.25 1 0
0.382169 0.964303 0
0.332168 0.964303 0
0.35 1 0
0.966209 0.0823575 0
1 0.05 0
0.876558 0.0357485 0
0.826558 0.0357485 0
0.85 0 0
0.710547 0.227526 0
0.663415 0.224132 0
0.686826 0.263198 0
0.964263 0.272229 0
1 0.25 0
0.40098 0.934133 0
0.418811 0.96983 0
0.45 1 0
0.326813 0.219104 0
0.290186 0.248584 0
0.336805 0.267084 0
0.243052 0.23639 0
0.253043 0.28437 0
0.224721 0.582616 0
0.220205 0.636726 0
0.252082 0.610769 0
0.92046 0.10812 0
0.954252 0.125762 0
0.66166 0.32475 0
0.662288 0.283458 0
0.639066 0.301096 0
0.949255 0.366653 0
0.949255 0.316653 0
1 0.35 0
0.291542 0.723459 0
0.27993 0.682005 0
0.259178 0.706333 0
0.394055 0.89916 0
0.430698 0.904686 0
0.531524 0.28422 0
0.492115 0.297124 0
0.522791 0.316692 0
0.040646 0.122453 0
0.040646 0.172453 0
0 0.15 0
1 0.15 0
0.151681 0.262718 0
0.192069 0.222774 0
0.137841 0.213317 0
0.558428 0.264284 0
0.600947 0.281797 0
0.597175 0.242291 0
0.508973 0.20957 0
0.551071 0.183459 0
0.505387 0.168251 0
0.118847 0.906605 0
0.088766 0.958276 0
0.3123 0.881198 0
0.329373 0.835836 0
0.290155 0.856751 0
0.18042 0.709353 0
0.223182 0.704287 0
0.204805 0.669945 0
0.114037 0.464054 0
0.157422 0.486991 0
0.15195 0.441504 0
0.279361 0.505346 0
0.248729 0.459236 0
0.225966 0.51055 0
0.423399 0.442555 0
0.448567 0.488847 0
0.892767 0.068106 0
0.65 0 0
0.901255 0.379406 0
0.952 0.412754 0
0.858877 0.146767 0
0.822019 0.189153 0
0.871644 0.19391 0
0.14825 0.528535 0
0.186162 0.505985 0
0.178931 0.775801 0
0.161815 0.746482 0
0.141948 0.778588 0
0.29813 0.591225 0
0.34111 0.580516 0
0.299577 0.545951 0
0.913519 0.288882 0
0.881657 0.240376 0
0.866648 0.2848 0
0.664882 0.143162 0
0.708469 0.158169 0
0.686215 0.112871 0
0.768308 0.293401 0
0.818722 0.278253 0
0.784372 0.251443 0
0.407693 0.254387 0
0.452622 0.232766 0
0.418361 0.215983 0
0.559238 0.352343 0
0.519829 0.365247 0
0.269689 0.146391 0
0.323596 0.167402 0
0.313091 0.113188 0
0.367897 0.0645775 0
0.396163 0.0349765 0
0.220028 0.321352 0
0.17678 0.307097 0
0.190899 0.356272 0
0.584604 0.203855 0
0.581018 0.162535 0
0.250656 0.860137 0
0.267729 0.814776 0
0.359821 0.770477 0
0.31886 0.781193 0
0.348189 0.800674 0
0.124404 0.679582 0
0.141706 0.637726 0
0.104067 0.642297 0
0.216622 0.899385 0
0.203213 0.085617 0
0.162735 0.126214 0
0.218707 0.132775 0
0.0893725 0.199083 0
0.129761 0.159139 0
0.121022 0.819921 0
0.103905 0.790602 0
0.193647 0.813034 0
0.159614 0.852282 0
0.194196 0.85741 0
0.650843 0.185696 0
0.628589 0.140398 0
0.504917 0.076007 0
0.50366 0.114367 0
0.548742 0.103779 0
0.378761 0.595487 0
0.380208 0.550214 0
0.466523 0.368506 0
0.783675 0.0347525 0
0.75 0 0
0.595056 0.120002 0
0.20263 0.384402 0
0.183224 0.431359 0
0.214741 0.417484 0
0.084015 0.29788 0
0.109114 0.342258 0
0.122552 0.29764 0
0.370334 0.82512 0
0.387646 0.864998 0
0.406461 0.829835 0
0.355164 0.351116 0
0.345461 0.389393 0
0.38124 0.369312 0
0.177444 0.641792 0
0.157107 0.604507 0
0.0286115 0.437949 0
0.0286115 0.487949 0
0 0.45 0
0.184917 0.578051 0
0.216794 0.552094 0
0.310754 0.412615 0
0.268135 0.41228 0
0.13984 0.408422 0
0.159382 0.370147 0
0.128108 0.380293 0
0.784378 0.167398 0
0.797145 0.21454 0
0.649424 0.382815 0
0.693196 0.390508 0
0.682209 0.350082 0
0.471401 0.267911 0
0.482069 0.229507 0
0.600319 0.323089 0
0.597356 0.371644 0
0.370215 0.185901 0
0.420304 0.369225 0
0.410601 0.407502 0
0.5 0.65 0
0.293615 0.645334 0
0.325979 0.66246 0
0.342624 0.703635 0
0.356309 0.666965 0
0.24951 0.782974 0
0.289009 0.779588 0
0.810542 0.362514 0
0.76432 0.338993 0
0.772204 0.381296 0
0.70942 0.286852 0
0.705431 0.332443 0
0.729969 0.312184 0
0.831184 0.106754 0
0.88081 0.111511 0
0.700748 0.430301 0
0.733534 0.397568 0
0.850584 0.326758 0
0.229212 0.186988 0
0.407496 0.52144 0
0.369845 0.506468 0
0.413594 0.760165 0
0.405497 0.719256 0
0.381051 0.749049 0
0.444574 0.794979 0
0.383872 0.640216 0
0.400517 0.681391 0
0.355233 0.0967005 0
0.42608 0.078274 0
0.379662 0.102076 0
0.055907 0.589708 0
0.0873405 0.613876 0
0.072862 0.718619 0
0.0918955 0.751177 0
0.105798 0.716711 0
0.234794 0.74574 0
0.213514 0.780928 0
0.143437 0.712141 0
0.72332 0.190623 0
0.744653 0.160332 0
0.788301 0.105758 0
0.748577 0.0986915 0
0.769527 0.134944 0
0.357928 0.894445 0
0.318709 0.915359 0
0.0802555 0.874244 0
0.121571 0.864297 0
0.32234 0.494638 0
0.349629 0.465863 0
0.384335 0.442641 0
0.336831 0.43081 0
0.608343 0.412069 0
0.527752 0.244716 0
0.858468 0.369061 0
0.627123 0.221367 0
0.382188 0.284319 0
0.345561 0.3138 0
0.437163 0.330315 0
0.746731 0.229689 0
0.149179 0.573985 0
0.720027 0.100984 0
0.810234 0.070501 0
0.861213 0.415162 0
0.827831 0.478851 0
0.85 0.5 0
0.082894 0.447232 0
0.0883665 0.492719 0
0.0578625 0.514002 0
0.300642 0.749391 0
0.351723 0.729569 0
0.321394 0.725064 0
0.416449 0.301103 0
0.462668 0.300384 0
0.837044 0.431259 0
</DataArray>
</Points>
<Cells>
<DataArray  type="UInt32"  Name="connectivity"  format="ascii">
1 138 139 
14 137 139 
45 137 138 
137 138 139 
4 141 142 
27 140 142 
65 140 141 
140 141 142 
0 144 145 
23 143 145 
43 143 144 
143 144 145 
4 141 147 
65 141 146 
105 146 147 
141 146 147 
5 149 150 
31 148 150 
47 148 149 
148 149 150 
2 152 153 
32 151 153 
44 151 152 
151 152 153 
2 152 155 
15 154 155 
44 152 154 
152 154 155 
15 154 157 
44 154 156 
101 156 157 
154 156 157 
6 159 160 
43 158 160 
93 158 159 
158 159 160 
15 162 163 
16 161 163 
71 161 162 
161 162 163 
6 159 165 
7 164 165 
93 159 164 
159 164 165 
[...]
<PointData  Vectors="u"> 
<DataArray  type="Float32"  Name="u"  NumberOfComponents="3" format="ascii">
 0.000000e+00 0.000000e+00 0.000000e+00
 0.000000e+00 0.000000e+00 0.000000e+00
 0.000000e+00 0.000000e+00 0.000000e+00
 0.000000e+00 0.000000e+00 0.000000e+00
 0.000000e+00 0.000000e+00 0.000000e+00
 0.000000e+00 0.000000e+00 0.000000e+00
 0.000000e+00 0.000000e+00 0.000000e+00
 0.000000e+00 0.000000e+00 0.000000e+00
 0.000000e+00 0.000000e+00 0.000000e+00
 0.000000e+00 0.000000e+00 0.000000e+00
 0.000000e+00 0.000000e+00 0.000000e+00
 0.000000e+00 0.000000e+00 0.000000e+00
 0.000000e+00 0.000000e+00 0.000000e+00
 0.000000e+00 0.000000e+00 0.000000e+00
 0.000000e+00 0.000000e+00 0.000000e+00
 0.000000e+00 0.000000e+00 0.000000e+00
 0.000000e+00 0.000000e+00 0.000000e+00
 0.000000e+00 0.000000e+00 0.000000e+00
 0.000000e+00 0.000000e+00 0.000000e+00
 0.000000e+00 0.000000e+00 0.000000e+00
 0.000000e+00 0.000000e+00 0.000000e+00
 0.000000e+00 0.000000e+00 0.000000e+00
 0.000000e+00 0.000000e+00 0.000000e+00
 0.000000e+00 0.000000e+00 0.000000e+00
 0.000000e+00 0.000000e+00 0.000000e+00
 0.000000e+00 0.000000e+00 0.000000e+00
 0.000000e+00 0.000000e+00 0.000000e+00
 0.000000e+00 0.000000e+00 0.000000e+00
 0.000000e+00 0.000000e+00 0.000000e+00
 0.000000e+00 0.000000e+00 0.000000e+00
 0.000000e+00 0.000000e+00 0.000000e+00
 0.000000e+00 0.000000e+00 0.000000e+00
 4.664293e-04 -1.648997e-02 0.000000e+00
 9.356656e-04 1.345215e-02 0.000000e+00
 1.056888e-03 9.208969e-03 0.000000e+00
 6.350057e-04 -2.539566e-02 0.000000e+00
 1.430570e-02 4.956386e-03 0.000000e+00
 -1.407251e-02 1.001626e-02 0.000000e+00
 -8.758732e-03 1.043623e-02 0.000000e+00
 2.749349e-02 5.356639e-03 0.000000e+00
 -1.066491e-02 -6.880405e-03 0.000000e+00
 7.834653e-03 1.873573e-02 0.000000e+00
 -1.517355e-02 2.578434e-03 0.000000e+00
 4.869388e-03 -4.815336e-03 0.000000e+00
 2.021476e-04 -3.758935e-02 0.000000e+00
 3.322552e-02 2.093122e-03 0.000000e+00
 4.521764e-02 1.449780e-03 0.000000e+00
 5.540499e-04 -4.204254e-02 0.000000e+00
 -1.442507e-03 1.422058e-02 0.000000e+00
 -2.478335e-02 -6.146438e-03 0.000000e+00
 -1.294374e-02 7.638989e-03 0.000000e+00
 5.941110e-03 7.400181e-03 0.000000e+00
 1.151382e-03 -4.938697e-03 0.000000e+00
 1.096612e-02 -1.009842e-02 0.000000e+00
 1.406701e-02 -3.208334e-03 0.000000e+00
 3.908972e-03 -3.066338e-04 0.000000e+00
 2.110563e-03 7.841586e-03 0.000000e+00
 4.825040e-04 1.658641e-03 0.000000e+00
 5.676385e-04 2.515426e-03 0.000000e+00
 1.487930e-02 2.289044e-03 0.000000e+00
 -5.808009e-03 2.533350e-03 0.000000e+00
 4.116319e-03 2.941939e-03 0.000000e+00
 9.004153e-03 -1.940667e-02 0.000000e+00
 -2.149635e-03 6.292003e-03 0.000000e+00
 -4.903548e-03 7.191043e-03 0.000000e+00
 9.078938e-03 -8.965329e-03 0.000000e+00
 1.338383e-02 -6.167584e-03 0.000000e+00
 -7.553672e-04 -7.917360e-03 0.000000e+00
 1.573576e-03 -3.843786e-02 0.000000e+00
 5.030419e-03 1.580193e-02 0.000000e+00
 3.355944e-03 -9.245401e-03 0.000000e+00
 1.576605e-03 -2.251448e-02 0.000000e+00
 3.933864e-02 -2.000658e-03 0.000000e+00
 -2.136630e-02 5.194065e-04 0.000000e+00
 2.957927e-02 -2.534389e-04 0.000000e+00
 2.999809e-02 -5.038886e-03 0.000000e+00
 2.290991e-03 -1.974229e-03 0.000000e+00
 2.819256e-03 1.260512e-02 0.000000e+00
 1.583782e-03 1.987836e-02 0.000000e+00
 3.000226e-03 2.835071e-03 0.000000e+00
 -6.847469e-03 4.343785e-03 0.000000e+00
 1.915150e-03 -7.114995e-03 0.000000e+00
 -1.448539e-02 -2.340719e-04 0.000000e+00
 -8.515819e-03 -2.073488e-03 0.000000e+00
 -8.061078e-03 -1.122669e-02 0.000000e+00
 9.601341e-03 -2.039802e-03 0.000000e+00
 7.869482e-03 1.415997e-02 0.000000e+00
 -1.489886e-02 5.853952e-03 0.000000e+00
 -1.400264e-02 9.605100e-03 0.000000e+00
 3.422951e-02 1.349631e-03 0.000000e+00
 2.063300e-02 2.067503e-03 0.000000e+00
 -2.211087e-03 -1.003722e-02 0.000000e+00
 9.619292e-03 -5.435413e-02 0.000000e+00
 9.954868e-03 -4.274419e-03 0.000000e+00
 5.013830e-03 -2.446845e-02 0.000000e+00
 6.899405e-03 -5.507453e-02 0.000000e+00
 2.558825e-02 -4.227923e-03 0.000000e+00
 3.026493e-03 -1.567274e-02 0.000000e+00
 5.600920e-03 1.361296e-02 0.000000e+00
 5.886099e-03 4.046964e-03 0.000000e+00
 1.656410e-03 -9.145304e-03 0.000000e+00
 7.299484e-04 -2.720075e-02 0.000000e+00
 3.912665e-03 9.170609e-03 0.000000e+00
 -1.267628e-02 1.174603e-02 0.000000e+00
 -2.881478e-03 -2.223113e-03 0.000000e+00
 -9.055519e-03 -1.467683e-02 0.000000e+00
 2.662492e-02 -1.853204e-03 0.000000e+00
 -2.146100e-02 -2.463816e-03 0.000000e+00
 -1.142224e-02 5.835356e-03 0.000000e+00
 8.415758e-04 7.037056e-04 0.000000e+00
 -2.325422e-02 -4.803286e-03 0.000000e+00
 -2.456494e-03 3.642245e-03 0.000000e+00
 2.207006e-03 -1.264951e-02 0.000000e+00
 3.454503e-02 -1.348005e-05 0.000000e+00
 2.854998e-03 1.707252e-02 0.000000e+00
 3.784131e-02 2.941653e-04 0.000000e+00
 5.045899e-03 1.936297e-02 0.000000e+00
 -7.766994e-04 7.697247e-03 0.000000e+00
 1.481811e-03 -3.039626e-02 0.000000e+00
 3.535722e-02 2.358733e-03 0.000000e+00
 3.784667e-03 -5.117475e-02 0.000000e+00
 1.966248e-03 -1.957308e-02 0.000000e+00
 2.046327e-03 -2.205570e-02 0.000000e+00
 8.252951e-03 7.335444e-04 0.000000e+00
 9.743298e-03 6.709813e-03 0.000000e+00
 -1.704995e-02 3.402324e-03 0.000000e+00
 1.752642e-03 -2.687177e-02 0.000000e+00
 6.193501e-03 1.674198e-02 0.000000e+00
 2.898121e-02 -4.918711e-03 0.000000e+00
 3.653857e-03 -5.066833e-03 0.000000e+00
 -1.383083e-03 -2.008023e-02 0.000000e+00
 -1.813537e-02 1.359992e-03 0.000000e+00
 3.764221e-02 6.362075e-04 0.000000e+00
 -1.696455e-02 -7.696032e-03 0.000000e+00
 -5.678513e-03 5.432620e-03 0.000000e+00
 4.144245e-02 5.275006e-04 0.000000e+00
 -1.684950e-02 -5.038754e-03 0.000000e+00
 3.568896e-02 5.729131e-04 0.000000e+00
 3.391754e-02 1.085992e-03 0.000000e+00
 0.000000e+00 0.000000e+00 0.000000e+00
 4.315618e-02 -5.839418e-03 0.000000e+00
 4.634139e-02 -2.178019e-02 0.000000e+00
 0.000000e+00 0.000000e+00 0.000000e+00
 1.992495e-03 -5.373749e-03 0.000000e+00
 1.752342e-03 -1.730740e-03 0.000000e+00
 0.000000e+00 0.000000e+00 0.000000e+00
 4.092239e-03 -1.624225e-02 0.000000e+00
 3.183214e-02 -3.958587e-02 0.000000e+00
 2.349586e-04 -4.053596e-02 0.000000e+00
 1.743400e-04 -4.022890e-02 0.000000e+00
 0.000000e+00 0.000000e+00 0.000000e+00
 3.297609e-04 -2.982296e-02 0.000000e+00
 7.051676e-05 -3.112854e-02 0.000000e+00
 1.816143e-04 -3.731415e-02 0.000000e+00
 1.222694e-04 -3.066397e-02 0.000000e+00
 0.000000e+00 0.000000e+00 0.000000e+00
 4.175617e-04 -3.408193e-02 0.000000e+00
 3.163315e-04 -3.750132e-02 0.000000e+00
 7.882132e-03 -4.648231e-03 0.000000e+00
 9.085037e-03 -2.084364e-03 0.000000e+00
 5.418186e-03 -1.982136e-03 0.000000e+00
 6.077882e-04 -3.423984e-02 0.000000e+00
 4.598523e-04 -3.528882e-02 0.000000e+00
 0.000000e+00 0.000000e+00 0.000000e+00
 1.230536e-02 -1.989515e-03 0.000000e+00
 0.000000e+00 0.000000e+00 0.000000e+00
 0.000000e+00 0.000000e+00 0.000000e+00
 1.979764e-02 -5.476075e-03 0.000000e+00
 2.110057e-02 -1.774222e-03 0.000000e+00
 1.958710e-02 -2.831720e-03 0.000000e+00
 1.599305e-03 -2.702785e-02 0.000000e+00
 4.748435e-04 -3.206296e-02 0.000000e+00
 6.196730e-04 -3.063883e-02 0.000000e+00
 0.000000e+00 0.000000e+00 0.000000e+00
 6.031848e-03 -6.437508e-03 0.000000e+00
 4.463441e-03 -7.696657e-03 0.000000e+00
 1.601705e-02 -2.584124e-03 0.000000e+00
 0.000000e+00 0.000000e+00 0.000000e+00
 2.434020e-02 -1.616353e-03 0.000000e+00
 0.000000e+00 0.000000e+00 0.000000e+00
 3.558234e-02 -1.944168e-03 0.000000e+00
 3.224074e-02 -2.327378e-03 0.000000e+00
 0.000000e+00 0.000000e+00 0.000000e+00
 1.338587e-02 -7.400964e-03 0.000000e+00
 2.041850e-02 -7.903497e-03 0.000000e+00
 5.810368e-03 -9.990193e-03 0.000000e+00
 3.727793e-02 -7.455750e-04 0.000000e+00
 3.548589e-02 -1.110648e-03 0.000000e+00
 0.000000e+00 0.000000e+00 0.000000e+00
 3.584726e-02 -1.347356e-03 0.000000e+00
 4.102322e-02 -6.259198e-04 0.000000e+00
 4.218423e-02 1.913166e-03 0.000000e+00
 4.244183e-02 6.687050e-04 0.000000e+00
 3.456963e-02 3.578160e-04 0.000000e+00
 2.407475e-03 -2.211471e-02 0.000000e+00
 6.603013e-04 -2.776496e-02 0.000000e+00
 1.191807e-03 -3.166099e-02 0.000000e+00
 7.052365e-04 -2.599846e-02 0.000000e+00
 0.000000e+00 0.000000e+00 0.000000e+00
 -1.211163e-02 2.487776e-03 0.000000e+00
 -1.470044e-02 -3.380262e-03 0.000000e+00
 -9.758285e-03 -1.442862e-03 0.000000e+00
 5.988787e-03 -6.835606e-02 0.000000e+00
 1.790170e-02 -7.376515e-02 0.000000e+00
 0.000000e+00 0.000000e+00 0.000000e+00
 8.566086e-03 -5.657786e-02 0.000000e+00
 3.380384e-03 -5.964681e-02 0.000000e+00
 5.236118e-03 -5.314317e-02 0.000000e+00
 1.587027e-03 -4.797077e-02 0.000000e+00
 2.480568e-03 -5.380876e-02 0.000000e+00
 1.135532e-03 -4.524803e-02 0.000000e+00
 0.000000e+00 0.000000e+00 0.000000e+00
 1.330870e-03 1.130248e-02 0.000000e+00
 9.700312e-04 -2.437841e-03 0.000000e+00
 7.311085e-04 4.343685e-03 0.000000e+00
 4.007830e-02 1.257458e-03 0.000000e+00
 3.303540e-02 1.760975e-04 0.000000e+00
 4.052243e-02 3.390132e-03 0.000000e+00
 3.647937e-02 7.994720e-04 0.000000e+00
 4.731779e-02 2.327582e-03 0.000000e+00
 3.390223e-02 1.986902e-04 0.000000e+00
 4.164344e-02 -2.463689e-04 0.000000e+00
 4.089993e-02 -2.812584e-04 0.000000e+00
 2.771638e-02 9.065229e-04 0.000000e+00
 3.746927e-02 -7.807059e-05 0.000000e+00
 4.022176e-02 3.455716e-04 0.000000e+00
 3.771975e-02 4.724892e-04 0.000000e+00
 3.894565e-02 -6.866188e-05 0.000000e+00
 0.000000e+00 0.000000e+00 0.000000e+00
 3.740493e-02 -3.207992e-04 0.000000e+00
 0.000000e+00 0.000000e+00 0.000000e+00
 8.654441e-04 -2.331948e-02 0.000000e+00
 8.342807e-04 -2.505253e-02 0.000000e+00
 0.000000e+00 0.000000e+00 0.000000e+00
 2.949700e-03 -9.389563e-03 0.000000e+00
 3.200386e-03 -1.003044e-02 0.000000e+00
 3.570892e-03 3.231313e-03 0.000000e+00
 4.459432e-04 -4.309451e-02 0.000000e+00
 7.887951e-04 -4.484727e-02 0.000000e+00
 0.000000e+00 0.000000e+00 0.000000e+00
 2.317475e-03 -7.744111e-03 0.000000e+00
 1.354590e-03 -1.790468e-02 0.000000e+00
 1.961327e-03 -1.810979e-02 0.000000e+00
 -1.173068e-02 8.447748e-03 0.000000e+00
 -1.448170e-02 1.015491e-02 0.000000e+00
 -1.015460e-02 8.494559e-03 0.000000e+00
 4.128066e-02 -1.836683e-03 0.000000e+00
 3.885714e-02 -7.882178e-04 0.000000e+00
 0.000000e+00 0.000000e+00 0.000000e+00
 1.325777e-03 -1.611988e-02 0.000000e+00
 0.000000e+00 0.000000e+00 0.000000e+00
 1.537978e-03 -1.283119e-02 0.000000e+00
 1.545384e-03 -1.396753e-02 0.000000e+00
 0.000000e+00 0.000000e+00 0.000000e+00
 1.599183e-03 1.109617e-02 0.000000e+00
 1.547000e-03 1.458078e-02 0.000000e+00
 1.052497e-03 1.407729e-02 0.000000e+00
 9.414930e-04 -1.679709e-02 0.000000e+00
 1.262949e-03 2.257013e-03 0.000000e+00
 9.218567e-04 -3.218350e-03 0.000000e+00
 2.374576e-02 3.638563e-03 0.000000e+00
 3.434984e-02 2.155755e-03 0.000000e+00
 3.748980e-02 4.234735e-04 0.000000e+00
 3.854468e-02 2.334943e-04 0.000000e+00
 0.000000e+00 0.000000e+00 0.000000e+00
 -1.048654e-02 5.157789e-03 0.000000e+00
 -9.281622e-03 3.631277e-03 0.000000e+00
 -1.516519e-02 4.509213e-03 0.000000e+00
 -1.258770e-02 1.043283e-02 0.000000e+00
 -1.414621e-02 1.093095e-02 0.000000e+00
 1.098926e-03 -2.636969e-02 0.000000e+00
 5.791026e-04 -3.449738e-02 0.000000e+00
 2.858565e-04 -4.405790e-02 0.000000e+00
 -4.359670e-03 -1.165765e-02 0.000000e+00
 -6.207819e-03 -9.653465e-03 0.000000e+00
 -1.042696e-02 -1.006627e-02 0.000000e+00
 -3.763466e-03 -6.800183e-03 0.000000e+00
 -6.127474e-03 -5.128002e-03 0.000000e+00
 3.734252e-03 2.082001e-02 0.000000e+00
 6.397256e-03 2.038768e-02 0.000000e+00
 5.849586e-03 1.971142e-02 0.000000e+00
 1.416856e-02 4.249837e-03 0.000000e+00
 4.340493e-03 5.978166e-03 0.000000e+00
 -1.664978e-02 1.790516e-03 0.000000e+00
 -1.724528e-02 3.260693e-03 0.000000e+00
 -1.872804e-02 1.530402e-03 0.000000e+00
 9.291647e-03 6.818707e-03 0.000000e+00
 -6.531093e-03 9.129127e-03 0.000000e+00
 4.270729e-03 8.464083e-03 0.000000e+00
 8.936124e-03 1.131169e-02 0.000000e+00
 9.029846e-03 1.435388e-02 0.000000e+00
 8.305903e-03 1.650715e-02 0.000000e+00
 1.792157e-03 -2.349561e-02 0.000000e+00
 9.467490e-04 -4.037668e-02 0.000000e+00
 -2.036871e-02 -3.539788e-03 0.000000e+00
 -2.243772e-02 -5.218965e-03 0.000000e+00
 -2.315814e-02 -4.698510e-03 0.000000e+00
 1.965080e-03 -8.819711e-03 0.000000e+00
 1.558667e-03 -1.125297e-02 0.000000e+00
 0.000000e+00 0.000000e+00 0.000000e+00
 -5.592827e-03 7.847436e-03 0.000000e+00
 1.970339e-04 -1.374467e-03 0.000000e+00
 -1.431166e-03 -3.847865e-03 0.000000e+00
 9.900388e-04 -4.087253e-03 0.000000e+00
 -1.664568e-02 -1.741467e-03 0.000000e+00
 -1.861441e-02 2.153054e-04 0.000000e+00
 -1.239403e-02 4.511333e-04 0.000000e+00
 -4.496482e-03 -5.000201e-03 0.000000e+00
 1.639014e-03 -2.777150e-03 0.000000e+00
 6.031494e-03 -5.406424e-03 0.000000e+00
 1.385531e-03 -6.688135e-03 0.000000e+00
 5.555686e-04 -2.209476e-02 0.000000e+00
 3.402448e-03 6.597184e-03 0.000000e+00
 4.836232e-03 1.971282e-03 0.000000e+00
 4.303028e-03 1.052578e-02 0.000000e+00
 6.073376e-03 1.585465e-02 0.000000e+00
 7.281561e-03 1.854832e-02 0.000000e+00
 6.634546e-03 1.912007e-02 0.000000e+00
 2.668712e-03 4.013476e-04 0.000000e+00
 1.472910e-03 1.195403e-02 0.000000e+00
 8.634784e-04 8.520536e-03 0.000000e+00
 -4.913281e-03 1.711707e-02 0.000000e+00
 -6.832404e-03 1.436316e-02 0.000000e+00
 -1.110422e-03 1.869648e-02 0.000000e+00
 -2.445185e-03 -2.082145e-02 0.000000e+00
 2.560572e-02 -5.823994e-02 0.000000e+00
 3.395513e-02 1.657417e-03 0.000000e+00
 0.000000e+00 0.000000e+00 0.000000e+00
 1.204725e-02 4.942961e-03 0.000000e+00
 3.224258e-02 4.004055e-03 0.000000e+00
 1.801924e-03 5.022335e-03 0.000000e+00
 -7.173739e-03 6.307998e-03 0.000000e+00
 -9.693214e-03 7.309470e-03 0.000000e+00
 2.922793e-03 1.133591e-02 0.000000e+00
 6.730163e-04 1.632820e-02 0.000000e+00
 5.054176e-03 1.380407e-02 0.000000e+00
 5.108123e-03 1.148394e-02 0.000000e+00
 3.996900e-03 5.081450e-03 0.000000e+00
 5.348784e-03 1.394345e-02 0.000000e+00
 6.531489e-03 -7.014838e-04 0.000000e+00
 3.616206e-04 1.466481e-02 0.000000e+00
 -1.187136e-02 8.959100e-03 0.000000e+00
 -1.359319e-02 8.561658e-03 0.000000e+00
 -1.305236e-02 8.026289e-03 0.000000e+00
 1.158444e-02 1.460890e-03 0.000000e+00
 4.921179e-03 3.143431e-03 0.000000e+00
 2.272184e-02 9.461555e-04 0.000000e+00
 -1.485636e-02 6.104174e-03 0.000000e+00
 -1.406166e-02 7.270351e-03 0.000000e+00
 -1.360527e-02 6.888940e-03 0.000000e+00
 -1.206333e-02 -9.716272e-03 0.000000e+00
 -9.250074e-03 -8.416217e-03 0.000000e+00
 -5.303796e-03 -1.010994e-02 0.000000e+00
 -1.648579e-02 -5.201335e-03 0.000000e+00
 -1.575611e-02 -8.303266e-03 0.000000e+00
 4.155974e-03 -8.949952e-03 0.000000e+00
 2.347437e-03 -1.120723e-02 0.000000e+00
 1.254797e-02 -8.710482e-03 0.000000e+00
 2.745961e-02 -4.684200e-03 0.000000e+00
 2.929190e-02 -2.020826e-03 0.000000e+00
 -4.569743e-03 3.216582e-04 0.000000e+00
 -1.402296e-03 1.197623e-03 0.000000e+00
 -2.425266e-03 4.854424e-03 0.000000e+00
 -3.864354e-03 -4.805570e-04 0.000000e+00
 7.344080e-03 -1.292893e-03 0.000000e+00
 4.010175e-03 1.453045e-02 0.000000e+00
 5.643605e-03 1.353188e-02 0.000000e+00
 6.960487e-03 -1.059020e-02 0.000000e+00
 7.126210e-03 4.432703e-03 0.000000e+00
 5.942513e-03 -4.944540e-03 0.000000e+00
 4.479654e-03 1.923315e-03 0.000000e+00
 4.844030e-03 9.213937e-03 0.000000e+00
 3.838250e-03 -5.716141e-03 0.000000e+00
 2.616259e-03 1.478754e-02 0.000000e+00
 1.146288e-02 -4.684321e-03 0.000000e+00
 5.487415e-03 -5.251854e-03 0.000000e+00
 4.976519e-03 -6.512996e-03 0.000000e+00
 2.183104e-03 -8.806514e-03 0.000000e+00
 2.896387e-03 -6.034076e-03 0.000000e+00
 2.765646e-03 -4.074056e-03 0.000000e+00
 2.692042e-03 -1.111013e-02 0.000000e+00
 4.547312e-03 1.468787e-02 0.000000e+00
 3.026687e-03 8.400471e-03 0.000000e+00
 3.459553e-03 1.395322e-02 0.000000e+00
 -7.836153e-04 2.330266e-03 0.000000e+00
 1.362531e-02 1.475597e-04 0.000000e+00
 3.530094e-02 -3.305359e-03 0.000000e+00
 2.312738e-02 -4.936179e-03 0.000000e+00
 2.778763e-02 -2.884226e-03 0.000000e+00
 9.257391e-03 -2.499422e-02 0.000000e+00
 6.311794e-03 -2.277886e-02 0.000000e+00
 -2.099742e-02 -8.510248e-03 0.000000e+00
 3.881800e-02 9.524509e-05 0.000000e+00
 0.000000e+00 0.000000e+00 0.000000e+00
 2.174751e-02 -1.356071e-03 0.000000e+00
 -3.785979e-03 6.851248e-03 0.000000e+00
 -1.414584e-03 1.120147e-02 0.000000e+00
 -4.352836e-03 1.001176e-02 0.000000e+00
 2.097410e-03 -9.405715e-03 0.000000e+00
 2.026236e-03 -3.320621e-03 0.000000e+00
 1.607142e-03 -2.438446e-03 0.000000e+00
 4.429856e-03 -1.378758e-02 0.000000e+00
 2.731841e-03 -2.106928e-02 0.000000e+00
 2.999474e-03 -3.160395e-02 0.000000e+00
 -2.174524e-02 -2.066640e-03 0.000000e+00
 -2.129087e-02 2.347489e-03 0.000000e+00
 -2.423647e-02 -1.964170e-03 0.000000e+00
 5.691711e-03 1.716294e-02 0.000000e+00
 4.696176e-03 1.383992e-02 0.000000e+00
 1.063293e-03 -2.018367e-02 0.000000e+00
 9.126276e-04 -2.163360e-02 0.000000e+00
 0.000000e+00 0.000000e+00 0.000000e+00
 3.961918e-03 1.853901e-02 0.000000e+00
 2.001086e-03 2.043511e-02 0.000000e+00
 -1.678067e-02 7.246357e-03 0.000000e+00
 -1.138040e-02 8.359347e-03 0.000000e+00
 1.431353e-03 4.938403e-03 0.000000e+00
 1.084353e-05 4.880646e-03 0.000000e+00
 1.549922e-03 1.700132e-03 0.000000e+00
 -8.271574e-04 4.842743e-03 0.000000e+00
 -1.028184e-02 6.626156e-03 0.000000e+00
 1.887839e-03 -1.563058e-03 0.000000e+00
 7.672182e-03 4.279355e-05 0.000000e+00
 -1.027271e-02 1.424062e-03 0.000000e+00
 -1.712861e-02 -6.431157e-03 0.000000e+00
 -8.780590e-03 -6.606091e-03 0.000000e+00
 -1.950443e-02 -1.333012e-03 0.000000e+00
 -6.333638e-03 -3.999112e-03 0.000000e+00
 4.639943e-04 -1.176967e-02 0.000000e+00
 -2.470995e-02 -4.929493e-03 0.000000e+00
 -1.874277e-02 -6.845143e-03 0.000000e+00
 0.000000e+00 0.000000e+00 0.000000e+00
 8.907849e-03 1.305773e-02 0.000000e+00
 1.003863e-02 2.917337e-03 0.000000e+00
 9.845137e-03 -4.289768e-03 0.000000e+00
 1.031596e-02 -1.120024e-02 0.000000e+00
 6.463488e-03 1.552245e-02 0.000000e+00
 7.099430e-03 1.101632e-02 0.000000e+00
 2.553606e-05 4.022521e-03 0.000000e+00
 -9.477468e-03 4.329065e-03 0.000000e+00
 6.258035e-03 2.414862e-03 0.000000e+00
 -1.629575e-02 4.782212e-03 0.000000e+00
 -1.353510e-02 3.031967e-03 0.000000e+00
 -1.509827e-02 4.689019e-03 0.000000e+00
 1.951560e-02 2.631270e-03 0.000000e+00
 1.478195e-02 3.614925e-03 0.000000e+00
 3.070983e-02 -6.273554e-04 0.000000e+00
 1.303443e-02 9.741661e-04 0.000000e+00
 -8.359455e-03 6.414088e-03 0.000000e+00
 -7.215266e-04 -6.919609e-03 0.000000e+00
 9.142047e-03 -4.060141e-02 0.000000e+00
 -1.409942e-03 -9.335374e-03 0.000000e+00
 4.708901e-03 -3.887100e-02 0.000000e+00
 6.744887e-03 -3.760571e-02 0.000000e+00
 7.044563e-03 -2.209650e-02 0.000000e+00
 2.016358e-03 -4.810404e-02 0.000000e+00
 1.009598e-02 -2.853680e-02 0.000000e+00
 8.514013e-03 -3.739564e-02 0.000000e+00
 1.937617e-02 -7.462293e-03 0.000000e+00
 2.969370e-02 -5.075392e-03 0.000000e+00
 2.031155e-02 -7.591499e-03 0.000000e+00
 1.938418e-03 -2.453261e-02 0.000000e+00
 3.157507e-03 -1.250277e-02 0.000000e+00
 2.217051e-03 -2.357237e-02 0.000000e+00
 2.708414e-03 -1.572575e-02 0.000000e+00
 3.587968e-03 -7.643314e-03 0.000000e+00
 7.107318e-03 1.711399e-02 0.000000e+00
 5.787614e-03 1.645757e-02 0.000000e+00
 4.916453e-03 7.617648e-03 0.000000e+00
 -4.046044e-03 4.657895e-03 0.000000e+00
 2.850183e-03 3.934471e-03 0.000000e+00
 2.187554e-02 2.108047e-03 0.000000e+00
 2.673149e-02 1.381149e-03 0.000000e+00
 1.035420e-02 3.182906e-03 0.000000e+00
 2.542835e-03 -6.987321e-03 0.000000e+00
 2.344739e-03 5.404773e-03 0.000000e+00
 1.108329e-03 -2.498754e-02 0.000000e+00
 2.064382e-03 -4.760805e-03 0.000000e+00
 -7.642480e-03 1.020068e-02 0.000000e+00
 -1.204368e-02 3.706695e-03 0.000000e+00
 -1.380780e-02 -5.045062e-03 0.000000e+00
 -1.732792e-02 6.274490e-03 0.000000e+00
 1.924264e-02 -4.645437e-03 0.000000e+00
 -1.287228e-02 -3.703221e-03 0.000000e+00
 5.139645e-03 4.568075e-03 0.000000e+00
 -8.408416e-03 1.970665e-03 0.000000e+00
 -1.618294e-02 -8.670498e-03 0.000000e+00
 -1.690067e-02 -6.025851e-03 0.000000e+00