<?xml version="1.0"?>
<VTKFile type="UnstructuredGrid"  version="0.1"  >
<UnstructuredGrid>
<Piece  NumberOfPoints="505" NumberOfCells="928">
<Points>
<DataArray  type="Float32"  NumberOfComponents="3"  format="ascii">
0 0 0
1 0 0
0 1 0
1 0.5 0
0.5 0.5 0
0.5 1 0
0.1 0 0
0.2 0 0
0.3 0 0
0.4 0 0
0.5 0 0
0.6 0 0
0.7 0 0
0.8 0 0
0.9 0 0
0 0.9 0
0 0.8 0
0 0.7 0
0 0.6 0
0 0.5 0
0 0.4 0
0 0.3 0
0 0.2 0
0 0.1 0
0.9 0.5 0
0.8 0.5 0
0.7 0.5 0
0.6 0.5 0
0.5 0.6 0
0.5 0.7 0
0.5 0.8 0
0.5 0.9 0
0.1 1 0
0.2 1 0
0.3 1 0
0.4 1 0
1 0.1 0
1 0.2 0
1 0.3 0
1 0.4 0
0.300178 0.296564 0
0.247566 0.664879 0
0.639694 0.259804 0
0.06564 0.06472 0
0.04439 0.954144 0
0.932418 0.064715 0
0.951013 0.456419 0
0.437622 0.939659 0
0.195334 0.464441 0
0.483382 0.329596 0
0.834786 0.236295 0
0.307228 0.81139 0
0.178229 0.173372 0
0.366998 0.134199 0
0.547485 0.14214 0
0.124832 0.74927 0
0.160163 0.896658 0
0.342556 0.535243 0
0.147651 0.342018 0
0.729803 0.127878 0
0.725981 0.357775 0
0.121369 0.600441 0
0.372954 0.70814 0
0.908503 0.151525 0
0.89851 0.333305 0
0.556275 0.400898 0
0.259184 0.092178 0
0.46329 0.194362 0
0.423773 0.869712 0
0.22823 0.818162 0
0.081292 0.144905 0
0.082979 0.831935 0
0.549999 0.065419 0
0.371537 0.407588 0
0.642628 0.097865 0
0.459835 0.086595 0
0.108565 0.418567 0
0.273082 0.902112 0
0.256598 0.556659 0
0.11951 0.509541 0
0.234147 0.370527 0
0.097453 0.253261 0
0.638438 0.342389 0
0.554656 0.224779 0
0.373432 0.237603 0
0.339663 0.62579 0
0.27079 0.747786 0
0.733958 0.266592 0
0.928527 0.244458 0
0.853116 0.071497 0
0.818426 0.404817 0
0.280194 0.200604 0
0.417859 0.565185 0
0.147241 0.079056 0
0.389149 0.789957 0
0.42808 0.654642 0
0.343469 0.059202 0
0.086765 0.684153 0
0.162043 0.675011 0
0.809252 0.14201 0
0.364337 0.928607 0
0.077532 0.916553 0
0.159064 0.807906 0
0.302124 0.454032 0
0.205909 0.272176 0
0.449664 0.407415 0
0.66041 0.423241 0
0.562201 0.303789 0
0.802658 0.320211 0
0.614551 0.182931 0
0.390944 0.331035 0
0.687136 0.18846 0
0.070577 0.342498 0
0.741087 0.437361 0
0.176989 0.547528 0
0.710251 0.07409 0
0.192845 0.608574 0
0.171114 0.398277 0
0.058959 0.753084 0
0.904 0.425508 0
0.438039 0.730373 0
0.057223 0.475897 0
0.058502 0.552106 0
0.330493 0.750997 0
0.312295 0.699131 0
0.684882 0.307111 0
0.053312 0.627311 0
0.198798 0.743695 0
0.392326 0.069953 0
0.351519 0.860283 0
0.397134 0.477694 0
0.319385 0.371198 0
0.767351 0.069505 0
0.441954 0.271171 0
0.759504 0.192785 0
0.855661 0.457701 0
0.500847 0.264652 0
0.916209 0.0323575 0
0.966209 0.0323575 0
0.95 0 0
0.578137 0.450449 0
0.528137 0.450449 0
0.55 0.5 0
0.03282 0.08236 0
0.03282 0.03236 0
0 0.05 0
0.502969 0.404157 0
0.474832 0.453708 0
0.468811 0.91983 0
0.468811 0.96983 0
0.5 0.95 0
0.072195 0.977072 0
0.022195 0.977072 0
0.05 1 0
0.022195 0.927072 0
0 0.95 0
0.060961 0.935348 0
0.038766 0.908276 0
0.106441 0.071888 0
0.123621 0.039528 0
0.08282 0.03236 0
0.0414895 0.815967 0
0.0414895 0.865968 0
0 0.85 0
0.173621 0.039528 0
0.15 0 0
0.05 0 0
0.301327 0.07569 0
0.321735 0.029601 0
0.279592 0.046089 0
0.070969 0.792509 0
0.0294795 0.776542 0
0.0294795 0.726542 0
0 0.75 0
0.114267 0.111981 0
0.073466 0.104813 0
0.229592 0.046089 0
0.25 0 0
0.371735 0.029601 0
0.35 0 0
0.479917 0.0432975 0
0.429918 0.0432975 0
0.45 0 0
0.461562 0.140479 0
0.413416 0.110397 0
0.415144 0.16428 0
0.574999 0.0327095 0
0.525 0.0327095 0
0.55 0 0
0.596313 0.081642 0
0.621314 0.0489325 0
0.927507 0.440964 0
0.902 0.462754 0
0.925507 0.47821 0
0.0700385 0.655732 0
0.026656 0.663655 0
0.0433825 0.692076 0
0.026656 0.613655 0
0 0.65 0
0.276766 0.370862 0
0.309781 0.333881 0
0.267162 0.333545 0
0.458929 0.582593 0
0.458929 0.532593 0
0.5 0.55 0
0.422969 0.609913 0
0.46404 0.627321 0
0.43306 0.692508 0
0.46902 0.715186 0
0.46404 0.677321 0
0.46902 0.765186 0
0.5 0.75 0
0.180082 0.948329 0
0.130082 0.948329 0
0.15 1 0
0.87983 0.441605 0
0.87783 0.478851 0
0.975507 0.42821 0
0.975507 0.47821 0
1 0.45 0
0.676439 0.0859775 0
0.705125 0.037045 0
0.671314 0.0489325 0
0.779756 0.421089 0
0.770544 0.46868 0
0.809213 0.452408 0
0.738801 0.0717975 0
0.733675 0.0347525 0
0.95 0.5 0
0.720544 0.46868 0
0.75 0.5 0
0.029251 0.526053 0
0.029251 0.576053 0
0 0.55 0
0.089006 0.530824 0
0.0899355 0.576273 0
0.12044 0.554991 0
0.461886 0.884856 0
0.461886 0.834856 0
0.5 0.85 0
0.089571 0.380533 0
0.0352885 0.371249 0
0.0542825 0.409284 0
0.918515 0.197991 0
0.964263 0.222229 0
0.954252 0.175762 0
0.630205 0.46162 0
0.680205 0.46162 0
0.65 0.5 0
0.0352885 0.321249 0
0 0.35 0
0.0487265 0.226631 0
0.0487265 0.276631 0
0 0.25 0
0.286541 0.951056 0
0.236541 0.951056 0
0.25 1 0
0.382169 0.964303 0
0.332168 0.964303 0
0.35 1 0
0.966209 0.0823575 0
1 0.05 0
0.876558 0.0357485 0
0.826558 0.0357485 0
0.85 0 0
0.710547 0.227526 0
0.663415 0.224132 0
0.686826 0.263198 0
0.964263 0.272229 0
1 0.25 0
0.40098 0.934133 0
0.418811 0.96983 0
0.45 1 0
0.326813 0.219104 0
0.290186 0.248584 0
0.336805 0.267084 0
0.243052 0.23639 0
0.253043 0.28437 0
0.224721 0.582616 0
0.220205 0.636726 0
0.252082 0.610769 0
0.92046 0.10812 0
0.954252 0.125762 0
0.66166 0.32475 0
0.662288 0.283458 0
0.639066 0.301096 0
0.949255 0.366653 0
0.949255 0.316653 0
1 0.35 0
0.291542 0.723459 0
0.27993 0.682005 0
0.259178 0.706333 0
0.394055 0.89916 0
0.430698 0.904686 0
0.531524 0.28422 0
0.492115 0.297124 0
0.522791 0.316692 0
0.040646 0.122453 0
0.040646 0.172453 0
0 0.15 0
1 0.15 0
0.151681 0.262718 0
0.192069 0.222774 0
0.137841 0.213317 0
0.558428 0.264284 0
0.600947 0.281797 0
0.597175 0.242291 0
0.508973 0.20957 0
0.551071 0.183459 0
0.505387 0.168251 0
0.118847 0.906605 0
0.088766 0.958276 0
0.3123 0.881198 0
0.329373 0.835836 0
0.290155 0.856751 0
0.18042 0.709353 0
0.223182 0.704287 0
0.204805 0.669945 0
0.114037 0.464054 0
0.157422 0.486991 0
0.15195 0.441504 0
0.279361 0.505346 0
0.248729 0.459236 0
0.225966 0.51055 0
0.423399 0.442555 0
0.448567 0.488847 0
0.892767 0.068106 0
0.65 0 0
0.901255 0.379406 0
0.952 0.412754 0
0.858877 0.146767 0
0.822019 0.189153 0
0.871644 0.19391 0
0.14825 0.528535 0
0.186162 0.505985 0
0.178931 0.775801 0
0.161815 0.746482 0
0.141948 0.778588 0
0.29813 0.591225 0
0.34111 0.580516 0
0.299577 0.545951 0
0.913519 0.288882 0
0.881657 0.240376 0
0.866648 0.2848 0
0.664882 0.143162 0
0.708469 0.158169 0
0.686215 0.112871 0
0.768308 0.293401 0
0.818722 0.278253 0
0.784372 0.251443 0
0.407693 0.254387 0
0.452622 0.232766 0
0.418361 0.215983 0
0.559238 0.352343 0
0.519829 0.365247 0
0.269689 0.146391 0
0.323596 0.167402 0
0.313091 0.113188 0
0.367897 0.0645775 0
0.396163 0.0349765 0
0.220028 0.321352 0
0.17678 0.307097 0
0.190899 0.356272 0
0.584604 0.203855 0
0.581018 0.162535 0
0.250656 0.860137 0
0.267729 0.814776 0
0.359821 0.770477 0
0.31886 0.781193 0
0.348189 0.800674 0
0.124404 0.679582 0
0.141706 0.637726 0
0.104067 0.642297 0
0.216622 0.899385 0
0.203213 0.085617 0
0.162735 0.126214 0
0.218707 0.132775 0
0.0893725 0.199083 0
0.129761 0.159139 0
0.121022 0.819921 0
0.103905 0.790602 0
0.193647 0.813034 0
0.159614 0.852282 0
0.194196 0.85741 0
0.650843 0.185696 0
0.628589 0.140398 0
0.504917 0.076007 0
0.50366 0.114367 0
0.548742 0.103779 0
0.378761 0.595487 0
0.380208 0.550214 0
0.466523 0.368506 0
0.783675 0.0347525 0
0.75 0 0
0.595056 0.120002 0
0.20263 0.384402 0
0.183224 0.431359 0
0.214741 0.417484 0
0.084015 0.29788 0
0.109114 0.342258 0
0.122552 0.29764 0
0.370334 0.82512 0
0.387646 0.864998 0
0.406461 0.829835 0
0.355164 0.351116 0
0.345461 0.389393 0
0.38124 0.369312 0
0.177444 0.641792 0
0.157107 0.604507 0
0.0286115 0.437949 0
0.0286115 0.487949 0
0 0.45 0
0.184917 0.578051 0
0.216794 0.552094 0
0.310754 0.412615 0
0.268135 0.41228 0
0.13984 0.408422 0
0.159382 0.370147 0
0.128108 0.380293 0
0.784378 0.167398 0
0.797145 0.21454 0
0.649424 0.382815 0
0.693196 0.390508 0
0.682209 0.350082 0
0.471401 0.267911 0
0.482069 0.229507 0
0.600319 0.323089 0
0.597356 0.371644 0
0.370215 0.185901 0
0.420304 0.369225 0
0.410601 0.407502 0
0.5 0.65 0
0.293615 0.645334 0
0.325979 0.66246 0
0.342624 0.703635 0
0.356309 0.666965 0
0.24951 0.782974 0
0.289009 0.779588 0
0.810542 0.362514 0
0.76432 0.338993 0
0.772204 0.381296 0
0.70942 0.286852 0
0.705431 0.332443 0
0.729969 0.312184 0
0.831184 0.106754 0
0.88081 0.111511 0
0.700748 0.430301 0
0.733534 0.397568 0
0.850584 0.326758 0
0.229212 0.186988 0
0.407496 0.52144 0
0.369845 0.506468 0
0.413594 0.760165 0
0.405497 0.719256 0
0.381051 0.749049 0
0.444574 0.794979 0
0.383872 0.640216 0
0.400517 0.681391 0
0.355233 0.0967005 0
0.42608 0.078274 0
0.379662 0.102076 0
0.055907 0.589708 0
0.0873405 0.613876 0
0.072862 0.718619 0
0.0918955 0.751177 0
0.105798 0.716711 0
0.234794 0.74574 0
0.213514 0.780928 0
0.143437 0.712141 0
0.72332 0.190623 0
0.744653 0.160332 0
0.788301 0.105758 0
0.748577 0.0986915 0
0.769527 0.134944 0
0.357928 0.894445 0
0.318709 0.915359 0
0.0802555 0.874244 0
0.121571 0.864297 0
0.32234 0.494638 0
0.349629 0.465863 0
0.384335 0.442641 0
0.336831 0.43081 0
0.608343 0.412069 0
0.527752 0.244716 0
0.858468 0.369061 0
0.627123 0.221367 0
0.382188 0.284319 0
0.345561 0.3138 0
0.437163 0.330315 0
0.746731 0.229689 0
0.149179 0.573985 0
0.720027 0.100984 0
0.810234 0.070501 0
0.861213 0.415162 0
0.827831 0.478851 0
0.85 0.5 0
0.082894 0.447232 0
0.0883665 0.492719 0
0.0578625 0.514002 0
0.300642 0.749391 0
0.351723 0.729569 0
0.321394 0.725064 0
0.416449 0.301103 0
0.462668 0.300384 0
0.837044 0.431259 0
</DataArray>
</Points>
<Cells>
<DataArray  type="UInt32"  Name="connectivity"  format="ascii">
1 138 139 
14 137 139 
45 137 138 
137 138 139 
4 141 142 
27 140 142 
65 140 141 
140 141 142 
0 144 145 
23 143 145 
43 143 144 
143 144 145 
4 141 147 
65 141 146 
105 146 147 
141 146 147 
5 149 150 
31 148 150 
47 148 149 
148 149 150 
2 152 153 
32 151 153 
44 151 152 
151 152 153 
2 152 155 
15 154 155 
44 152 154 
152 154 155 
15 154 157 
44 154 156 
101 156 157 
154 156 157 
6 159 160 
43 158 160 
93 158 159 
158 159 160 
15 162 163 
16 161 163 
71 161 162 
161 162 163 
6 159 165 
7 164 165 
93 159 164 
159 164 165 
[...]
<PointData  Vectors="u"> 
<DataArray  type="Float32"  Name="u"  NumberOfComponents="3" format="ascii">
 0.000000e+00 0.000000e+00 0.000000e+00
 0.000000e+00 0.000000e+00 0.000000e+00
 0.000000e+00 0.000000e+00 0.000000e+00
 0.000000e+00 0.000000e+00 0.000000e+00
 0.000000e+00 0.000000e+00 0.000000e+00
 0.000000e+00 0.000000e+00 0.000000e+00
 0.000000e+00 0.000000e+00 0.000000e+00
 0.000000e+00 0.000000e+00 0.000000e+00
 0.000000e+00 0.000000e+00 0.000000e+00
 0.000000e+00 0.000000e+00 0.000000e+00
 0.000000e+00 0.000000e+00 0.000000e+00
 0.000000e+00 0.000000e+00 0.000000e+00
 0.000000e+00 0.000000e+00 0.000000e+00
 0.000000e+00 0.000000e+00 0.000000e+00
 0.000000e+00 0.000000e+00 0.000000e+00
 0.000000e+00 0.000000e+00 0.000000e+00
 0.000000e+00 0.000000e+00 0.000000e+00
 0.000000e+00 0.000000e+00 0.000000e+00
 0.000000e+00 0.000000e+00 0.000000e+00
 0.000000e+00 0.000000e+00 0.000000e+00
 0.000000e+00 0.000000e+00 0.000000e+00
 0.000000e+00 0.000000e+00 0.000000e+00
 0.000000e+00 0.000000e+00 0.000000e+00
 0.000000e+00 0.000000e+00 0.000000e+00
 0.000000e+00 0.000000e+00 0.000000e+00
 0.000000e+00 0.000000e+00 0.000000e+00
 0.000000e+00 0.000000e+00 0.000000e+00
 0.000000e+00 0.000000e+00 0.000000e+00
 0.000000e+00 0.000000e+00 0.000000e+00
 0.000000e+00 0.000000e+00 0.000000e+00
 0.000000e+00 0.000000e+00 0.000000e+00
 0.000000e+00 0.000000e+00 0.000000e+00
 -1.516445e-05 1.290628e-01 0.000000e+00
 -1.498845e-04 1.444608e-01 0.000000e+00
 -7.871095e-05 1.418917e-01 0.000000e+00
 8.940653e-05 1.233470e-01 0.000000e+00
 -1.299755e-01 6.725723e-03 0.000000e+00
 -1.442937e-01 1.356791e-02 0.000000e+00
 -1.419916e-01 1.431350e-02 0.000000e+00
 -1.228803e-01 7.541198e-03 0.000000e+00
 -7.090512e-02 4.699200e-02 0.000000e+00
 -8.252885e-03 1.431637e-01 0.000000e+00
 -1.384803e-01 2.470101e-02 0.000000e+00
 -3.603217e-03 3.444280e-03 0.000000e+00
 4.195172e-05 6.816149e-02 0.000000e+00
 -9.352356e-02 3.189489e-03 0.000000e+00
 -6.290256e-02 2.237359e-03 0.000000e+00
 1.989000e-04 8.752642e-02 0.000000e+00
 -3.154301e-02 1.122457e-01 0.000000e+00
 -1.582043e-01 5.108066e-02 0.000000e+00
 -1.381533e-01 1.599331e-02 0.000000e+00
 1.947120e-04 1.435388e-01 0.000000e+00
 -4.013292e-02 3.278248e-02 0.000000e+00
 -7.241911e-02 9.592975e-03 0.000000e+00
 -9.775682e-02 1.244497e-02 0.000000e+00
 -1.070020e-03 1.396294e-01 0.000000e+00
 -6.132409e-05 1.465741e-01 0.000000e+00
 -4.938609e-02 1.581315e-01 0.000000e+00
 -2.545999e-02 8.223816e-02 0.000000e+00
 -1.182461e-01 1.012536e-02 0.000000e+00
 -1.643999e-01 1.500798e-02 0.000000e+00
 -6.268938e-03 1.306735e-01 0.000000e+00
 1.401683e-03 1.393685e-01 0.000000e+00
 -1.409251e-01 1.006102e-02 0.000000e+00
 -1.480503e-01 1.218300e-02 0.000000e+00
 -1.820538e-01 3.095134e-02 0.000000e+00
 -4.693770e-02 7.965981e-03 0.000000e+00
 -9.511774e-02 1.881563e-02 0.000000e+00
 5.852011e-04 1.028824e-01 0.000000e+00
 -7.237764e-04 1.422228e-01 0.000000e+00
 -1.184889e-02 2.153291e-02 0.000000e+00
 8.006466e-05 1.154353e-01 0.000000e+00
 -6.097660e-02 3.127256e-03 0.000000e+00
 -1.209490e-01 1.085008e-01 0.000000e+00
 -9.405345e-02 7.083981e-03 0.000000e+00
 -6.654803e-02 4.418246e-03 0.000000e+00
 -1.314172e-02 9.672456e-02 0.000000e+00
 3.157687e-05 1.410441e-01 0.000000e+00
 -2.920276e-02 1.382556e-01 0.000000e+00
 -1.119014e-02 1.179179e-01 0.000000e+00
 -5.034714e-02 7.884893e-02 0.000000e+00
 -1.516983e-02 5.417718e-02 0.000000e+00
 -1.728085e-01 2.278781e-02 0.000000e+00
 -1.176201e-01 2.412279e-02 0.000000e+00
 -8.447631e-02 2.712365e-02 0.000000e+00
 -1.096333e-02 1.542355e-01 0.000000e+00
 -1.800812e-03 1.430281e-01 0.000000e+00
 -1.422781e-01 2.054430e-02 0.000000e+00
 -1.401620e-01 1.439967e-02 0.000000e+00
 -9.496779e-02 3.108596e-03 0.000000e+00
 -1.352573e-01 6.470960e-03 0.000000e+00
 -6.311015e-02 2.542197e-02 0.000000e+00
 -1.971596e-02 1.235234e-01 0.000000e+00
 -2.095898e-02 9.398525e-03 0.000000e+00
 1.506391e-03 1.298467e-01 0.000000e+00
 2.230784e-03 9.598986e-02 0.000000e+00
 -4.053384e-02 2.113422e-03 0.000000e+00
 -1.205519e-03 1.163755e-01 0.000000e+00
 -4.903639e-03 1.431353e-01 0.000000e+00
 -1.307735e-01 1.020241e-02 0.000000e+00
 3.309437e-04 1.391700e-01 0.000000e+00
 1.206416e-04 1.101227e-01 0.000000e+00
 -6.668654e-04 1.460753e-01 0.000000e+00
 -7.208115e-02 1.199133e-01 0.000000e+00
 -4.399577e-02 5.443889e-02 0.000000e+00
 -1.709854e-01 9.468433e-02 0.000000e+00
 -1.391195e-01 8.102053e-03 0.000000e+00
 -1.566835e-01 3.277496e-02 0.000000e+00
 -1.531781e-01 1.533601e-02 0.000000e+00
 -1.149540e-01 1.841232e-02 0.000000e+00
 -1.175590e-01 6.168487e-02 0.000000e+00
 -1.241019e-01 1.801639e-02 0.000000e+00
 -7.105162e-03 6.319154e-02 0.000000e+00
 -1.086830e-01 3.931812e-03 0.000000e+00
 -1.790684e-02 1.310052e-01 0.000000e+00
 -8.450310e-02 4.076260e-03 0.000000e+00
 -1.262200e-02 1.389833e-01 0.000000e+00
 -2.959175e-02 9.568858e-02 0.000000e+00
 -9.857557e-06 8.848385e-02 0.000000e+00
 -1.073847e-01 4.231434e-03 0.000000e+00
 1.932596e-03 8.414987e-02 0.000000e+00
 -3.176918e-03 7.227818e-02 0.000000e+00
 -2.101945e-03 8.087076e-02 0.000000e+00
 3.002898e-04 1.455696e-01 0.000000e+00
 -2.660970e-03 1.478447e-01 0.000000e+00
 -1.574392e-01 2.194943e-02 0.000000e+00
 -8.031356e-04 7.870287e-02 0.000000e+00
 -2.515363e-03 1.441203e-01 0.000000e+00
 -5.087588e-02 2.692346e-03 0.000000e+00
 6.602052e-04 1.418248e-01 0.000000e+00
 -1.034729e-01 1.479712e-01 0.000000e+00
 -8.736579e-02 7.934580e-02 0.000000e+00
 -8.578366e-02 3.297628e-03 0.000000e+00
 -1.131028e-01 3.607009e-02 0.000000e+00
 -1.312336e-01 1.632338e-02 0.000000e+00
 -6.766820e-02 1.456738e-03 0.000000e+00
 -1.252564e-01 3.223529e-02 0.000000e+00
 -4.789453e-02 9.375503e-04 0.000000e+00
 -5.067288e-02 1.538703e-03 0.000000e+00
 0.000000e+00 0.000000e+00 0.000000e+00
 -1.159511e-01 9.727059e-03 0.000000e+00
 -1.376384e-01 3.333256e-02 0.000000e+00
 0.000000e+00 0.000000e+00 0.000000e+00
 -1.289605e-03 2.047470e-03 0.000000e+00
 2.833164e-04 -2.767708e-04 0.000000e+00
 0.000000e+00 0.000000e+00 0.000000e+00
 -1.867142e-01 5.971224e-02 0.000000e+00
 -1.480650e-01 8.846440e-02 0.000000e+00
 1.080341e-04 4.401491e-02 0.000000e+00
 6.024476e-05 4.410922e-02 0.000000e+00
 0.000000e+00 0.000000e+00 0.000000e+00
 1.411585e-05 1.046323e-01 0.000000e+00
 9.256090e-06 3.328668e-02 0.000000e+00
 -2.313511e-06 7.639212e-02 0.000000e+00
 5.562772e-05 3.340968e-02 0.000000e+00
 0.000000e+00 0.000000e+00 0.000000e+00
 8.618515e-05 9.117909e-02 0.000000e+00
 1.173778e-04 5.952471e-02 0.000000e+00
 -1.104205e-02 7.122525e-03 0.000000e+00
 -7.111376e-03 2.540609e-03 0.000000e+00
 -1.893404e-03 1.129923e-03 0.000000e+00
 9.129718e-05 6.454970e-02 0.000000e+00
 1.186501e-04 6.444141e-02 0.000000e+00
 0.000000e+00 0.000000e+00 0.000000e+00
 -1.321270e-02 2.492408e-03 0.000000e+00
 0.000000e+00 0.000000e+00 0.000000e+00
 0.000000e+00 0.000000e+00 0.000000e+00
 -4.576123e-02 4.313804e-03 0.000000e+00
 -1.897268e-02 5.070383e-04 0.000000e+00
 -2.762484e-02 1.884701e-03 0.000000e+00
 4.143323e-05 1.030974e-01 0.000000e+00
 9.215469e-05 4.559102e-02 0.000000e+00
 6.335481e-05 4.560134e-02 0.000000e+00
 0.000000e+00 0.000000e+00 0.000000e+00
 -1.844506e-02 1.673387e-02 0.000000e+00
 -8.140738e-03 1.093694e-02 0.000000e+00
 -2.274514e-02 2.581617e-03 0.000000e+00
 0.000000e+00 0.000000e+00 0.000000e+00
 -2.100998e-02 4.523019e-04 0.000000e+00
 0.000000e+00 0.000000e+00 0.000000e+00
 -3.718689e-02 1.198854e-03 0.000000e+00
 -3.451779e-02 1.086381e-03 0.000000e+00
 0.000000e+00 0.000000e+00 0.000000e+00
 -8.564207e-02 1.072892e-02 0.000000e+00
 -7.187131e-02 6.529169e-03 0.000000e+00
 -8.312807e-02 1.341753e-02 0.000000e+00
 -3.182280e-02 8.767745e-04 0.000000e+00
 -2.939815e-02 7.533612e-04 0.000000e+00
 0.000000e+00 0.000000e+00 0.000000e+00
 -7.814334e-02 5.050184e-03 0.000000e+00
 -5.230558e-02 2.029602e-03 0.000000e+00
 -8.658667e-02 3.134934e-03 0.000000e+00
 -5.670012e-02 1.266384e-03 0.000000e+00
 -3.100754e-02 6.131479e-04 0.000000e+00
 -1.076905e-03 9.957498e-02 0.000000e+00
 -1.539951e-05 4.084006e-02 0.000000e+00
 -9.516216e-05 6.646140e-02 0.000000e+00
 -1.822784e-04 4.021158e-02 0.000000e+00
 0.000000e+00 0.000000e+00 0.000000e+00
 -6.675304e-02 7.668776e-02 0.000000e+00
 -7.860259e-02 6.083398e-02 0.000000e+00
 -6.187035e-02 6.239859e-02 0.000000e+00
 -1.479892e-03 5.534435e-02 0.000000e+00
 -2.982239e-02 7.779086e-02 0.000000e+00
 0.000000e+00 0.000000e+00 0.000000e+00
 -2.704820e-03 1.066299e-01 0.000000e+00
 1.753849e-03 4.384000e-02 0.000000e+00
 2.484226e-03 8.960983e-02 0.000000e+00
 1.053492e-03 3.999854e-02 0.000000e+00
 1.634370e-03 4.562527e-02 0.000000e+00
 7.187772e-04 4.145428e-02 0.000000e+00
 0.000000e+00 0.000000e+00 0.000000e+00
 -6.334591e-05 1.461305e-01 0.000000e+00
 1.324368e-05 1.427184e-01 0.000000e+00
 -8.924903e-05 1.462197e-01 0.000000e+00
 -8.975460e-02 2.653245e-03 0.000000e+00
 -3.191949e-02 4.306201e-04 0.000000e+00
 -9.789808e-02 4.892221e-03 0.000000e+00
 -2.836088e-02 1.184907e-03 0.000000e+00
 -6.919958e-02 3.342557e-03 0.000000e+00
 -9.045534e-02 5.564168e-03 0.000000e+00
 -4.362901e-02 1.045940e-03 0.000000e+00
 -5.632538e-02 1.997082e-03 0.000000e+00
 -1.246502e-01 5.217526e-03 0.000000e+00
 -5.449617e-02 9.888072e-04 0.000000e+00
 -7.937239e-02 1.925409e-03 0.000000e+00
 -8.531363e-02 3.673570e-03 0.000000e+00
 -4.301894e-02 9.537430e-04 0.000000e+00
 0.000000e+00 0.000000e+00 0.000000e+00
 -5.779886e-02 1.209976e-03 0.000000e+00
 0.000000e+00 0.000000e+00 0.000000e+00
 -6.392988e-04 4.146778e-02 0.000000e+00
 -3.873897e-04 4.336979e-02 0.000000e+00
 0.000000e+00 0.000000e+00 0.000000e+00
 -5.717621e-03 1.064231e-01 0.000000e+00
 -4.247556e-03 1.121258e-01 0.000000e+00
 -8.736707e-03 1.251399e-01 0.000000e+00
 2.068845e-04 5.438310e-02 0.000000e+00
 4.008669e-04 5.366467e-02 0.000000e+00
 0.000000e+00 0.000000e+00 0.000000e+00
 -1.019236e-02 8.124833e-02 0.000000e+00
 -1.753900e-03 3.790523e-02 0.000000e+00
 -3.637291e-03 6.121565e-02 0.000000e+00
 -1.414174e-01 1.298923e-02 0.000000e+00
 -1.417126e-01 1.415159e-02 0.000000e+00
 -1.448395e-01 1.199166e-02 0.000000e+00
 -8.095780e-02 2.863753e-03 0.000000e+00
 -7.496997e-02 2.115721e-03 0.000000e+00
 0.000000e+00 0.000000e+00 0.000000e+00
 -2.005720e-03 3.267626e-02 0.000000e+00
 0.000000e+00 0.000000e+00 0.000000e+00
 -4.712021e-03 2.876141e-02 0.000000e+00
 -4.220604e-03 3.734670e-02 0.000000e+00
 0.000000e+00 0.000000e+00 0.000000e+00
 7.024972e-06 1.413539e-01 0.000000e+00
 -7.658723e-05 1.413885e-01 0.000000e+00
 -1.503980e-04 1.407836e-01 0.000000e+00
 1.676809e-04 1.331775e-01 0.000000e+00
 9.239887e-05 1.428112e-01 0.000000e+00
 2.924848e-05 1.415955e-01 0.000000e+00
 -1.150389e-01 5.096836e-03 0.000000e+00
 -7.842556e-02 2.956668e-03 0.000000e+00
 -5.116657e-02 9.085315e-04 0.000000e+00
 -4.883359e-02 8.758768e-04 0.000000e+00
 0.000000e+00 0.000000e+00 0.000000e+00
 -1.322184e-01 2.045305e-02 0.000000e+00
 -1.284238e-01 2.180545e-02 0.000000e+00
 -1.410017e-01 2.268352e-02 0.000000e+00
 -1.408519e-01 1.463196e-02 0.000000e+00
 -1.406616e-01 1.488590e-02 0.000000e+00
 3.058537e-04 1.226613e-01 0.000000e+00
 1.388447e-04 1.081551e-01 0.000000e+00
 6.668628e-05 7.144457e-02 0.000000e+00
 -7.241378e-02 2.472238e-02 0.000000e+00
 -6.534869e-02 3.441879e-02 0.000000e+00
 -7.901520e-02 3.589638e-02 0.000000e+00
 -5.449325e-02 3.849723e-02 0.000000e+00
 -5.625095e-02 4.881358e-02 0.000000e+00
 -1.966551e-02 1.372876e-01 0.000000e+00
 -1.105734e-02 1.412865e-01 0.000000e+00
 -1.656321e-02 1.424151e-01 0.000000e+00
 -1.294221e-01 6.624969e-03 0.000000e+00
 -1.399152e-01 8.476981e-03 0.000000e+00
 -1.653430e-01 2.235137e-02 0.000000e+00
 -1.485960e-01 2.398327e-02 0.000000e+00
 -1.567473e-01 2.517541e-02 0.000000e+00
 -1.407172e-01 1.006496e-02 0.000000e+00
 -1.440215e-01 1.323952e-02 0.000000e+00
 -1.418860e-01 1.174231e-02 0.000000e+00
 -2.149464e-03 1.452144e-01 0.000000e+00
 -5.747940e-03 1.456735e-01 0.000000e+00
 -4.316646e-03 1.433946e-01 0.000000e+00
 5.098040e-04 1.270517e-01 0.000000e+00
 3.550886e-04 9.556257e-02 0.000000e+00
 -1.415516e-01 3.375859e-02 0.000000e+00
 -1.410488e-01 4.046117e-02 0.000000e+00
 -1.596704e-01 4.029908e-02 0.000000e+00
 -3.178333e-03 7.889975e-03 0.000000e+00
 -3.574011e-03 1.561920e-02 0.000000e+00
 0.000000e+00 0.000000e+00 0.000000e+00
 -1.462327e-01 1.060901e-02 0.000000e+00
 -2.974068e-02 6.029990e-02 0.000000e+00
 -4.260346e-02 4.411899e-02 0.000000e+00
 -2.786813e-02 4.688455e-02 0.000000e+00
 -1.344592e-01 2.910814e-02 0.000000e+00
 -1.468902e-01 2.778062e-02 0.000000e+00
 -1.287714e-01 2.518114e-02 0.000000e+00
 -1.061682e-01 2.195601e-02 0.000000e+00
 -1.065967e-01 1.832717e-02 0.000000e+00
 -9.701375e-02 1.547818e-02 0.000000e+00
 5.855803e-05 1.388558e-01 0.000000e+00
 6.114598e-05 1.205678e-01 0.000000e+00
 2.961177e-04 1.428639e-01 0.000000e+00
 5.482172e-04 1.436240e-01 0.000000e+00
 1.234901e-04 1.420429e-01 0.000000e+00
 -3.700921e-03 1.444249e-01 0.000000e+00
 -4.718253e-03 1.427600e-01 0.000000e+00
 -7.038419e-03 1.425155e-01 0.000000e+00
 -1.243589e-02 1.078547e-01 0.000000e+00
 -2.018866e-02 1.188770e-01 0.000000e+00
 -2.214375e-02 1.080773e-01 0.000000e+00
 -4.885472e-02 1.329504e-01 0.000000e+00
 -4.895523e-02 1.113203e-01 0.000000e+00
 -3.312321e-02 1.247143e-01 0.000000e+00
 -1.435407e-01 1.253996e-01 0.000000e+00
 -9.631155e-02 1.148175e-01 0.000000e+00
 -9.437844e-02 2.986582e-03 0.000000e+00
 0.000000e+00 0.000000e+00 0.000000e+00
 -1.411412e-01 8.560506e-03 0.000000e+00
 -1.153223e-01 5.992363e-03 0.000000e+00
 -1.363237e-01 9.879298e-03 0.000000e+00
 -1.358370e-01 1.407349e-02 0.000000e+00
 -1.390833e-01 1.324170e-02 0.000000e+00
 -1.486387e-02 1.265399e-01 0.000000e+00
 -2.463449e-02 1.228583e-01 0.000000e+00
 -1.404675e-03 1.455554e-01 0.000000e+00
 -1.892366e-03 1.453573e-01 0.000000e+00
 -8.880989e-04 1.441784e-01 0.000000e+00
 -2.298722e-02 1.508465e-01 0.000000e+00
 -2.587989e-02 1.583248e-01 0.000000e+00
 -3.877726e-02 1.479645e-01 0.000000e+00
 -1.431617e-01 1.413676e-02 0.000000e+00
 -1.393706e-01 1.486232e-02 0.000000e+00
 -1.438384e-01 1.499668e-02 0.000000e+00
 -1.140670e-01 1.294007e-02 0.000000e+00
 -1.223996e-01 1.419062e-02 0.000000e+00
 -1.070965e-01 8.774002e-03 0.000000e+00
 -1.489804e-01 1.834085e-02 0.000000e+00
 -1.438781e-01 1.666016e-02 0.000000e+00
 -1.390953e-01 1.820317e-02 0.000000e+00
 -9.703394e-02 3.140798e-02 0.000000e+00
 -1.020164e-01 2.602937e-02 0.000000e+00
 -9.081762e-02 2.226161e-02 0.000000e+00
 -1.814575e-01 3.516690e-02 0.000000e+00
 -1.845172e-01 4.798383e-02 0.000000e+00
 -5.970826e-02 1.652790e-02 0.000000e+00
 -6.998862e-02 1.584247e-02 0.000000e+00
 -6.102200e-02 8.512638e-03 0.000000e+00
 -4.571150e-02 2.353384e-03 0.000000e+00
 -2.563694e-02 5.833277e-04 0.000000e+00
 -4.654319e-02 6.527561e-02 0.000000e+00
 -3.479182e-02 6.929740e-02 0.000000e+00
 -3.704077e-02 8.089109e-02 0.000000e+00
 -1.155608e-01 2.116653e-02 0.000000e+00
 -1.067162e-01 1.567534e-02 0.000000e+00
 -1.997499e-04 1.411475e-01 0.000000e+00
 -4.247330e-04 1.416255e-01 0.000000e+00
 1.356827e-03 1.414973e-01 0.000000e+00
 2.952879e-04 1.445841e-01 0.000000e+00
 9.617667e-04 1.429239e-01 0.000000e+00
 -2.886823e-03 1.372355e-01 0.000000e+00
 -5.904109e-03 1.388661e-01 0.000000e+00
 -3.076740e-03 1.262737e-01 0.000000e+00
 -1.379734e-04 1.428712e-01 0.000000e+00
 -3.476369e-02 9.383453e-03 0.000000e+00
 -3.324981e-02 2.092330e-02 0.000000e+00
 -4.807267e-02 1.856602e-02 0.000000e+00
 -1.426380e-02 3.772231e-02 0.000000e+00
 -2.596575e-02 3.077639e-02 0.000000e+00
 -1.878252e-04 1.392868e-01 0.000000e+00
 -2.301237e-04 1.308225e-01 0.000000e+00
 -8.194133e-04 1.448438e-01 0.000000e+00
 -2.360218e-04 1.463961e-01 0.000000e+00
 -3.285953e-04 1.449005e-01 0.000000e+00
 -1.197633e-01 1.839442e-02 0.000000e+00
 -1.085623e-01 1.274165e-02 0.000000e+00
 -6.452946e-02 3.810187e-03 0.000000e+00
 -8.381968e-02 8.051548e-03 0.000000e+00
 -8.509682e-02 7.363876e-03 0.000000e+00
 -1.515863e-02 1.489494e-01 0.000000e+00
 -3.927292e-02 1.560456e-01 0.000000e+00
 -1.721274e-01 6.982668e-02 0.000000e+00
 -4.543588e-02 8.786919e-04 0.000000e+00
 0.000000e+00 0.000000e+00 0.000000e+00
 -9.784658e-02 9.881754e-03 0.000000e+00
 -3.961018e-02 8.749785e-02 0.000000e+00
 -3.107987e-02 1.038830e-01 0.000000e+00
 -4.153527e-02 9.674211e-02 0.000000e+00
 -1.074889e-02 6.078431e-02 0.000000e+00
 -1.554834e-02 7.934093e-02 0.000000e+00
 -2.033300e-02 7.000970e-02 0.000000e+00
 1.039581e-03 1.378570e-01 0.000000e+00
 7.659626e-04 1.305846e-01 0.000000e+00
 1.010565e-03 1.183755e-01 0.000000e+00
 -1.041059e-01 7.139216e-02 0.000000e+00
 -1.037541e-01 9.319963e-02 0.000000e+00
 -1.236503e-01 8.375203e-02 0.000000e+00
 -8.079529e-03 1.415849e-01 0.000000e+00
 -9.551263e-03 1.377557e-01 0.000000e+00
 -9.148392e-04 3.559794e-02 0.000000e+00
 -7.623047e-04 3.875459e-02 0.000000e+00
 0.000000e+00 0.000000e+00 0.000000e+00
 -1.540871e-02 1.355816e-01 0.000000e+00
 -2.393893e-02 1.326110e-01 0.000000e+00
 -8.311561e-02 1.007056e-01 0.000000e+00
 -6.217404e-02 9.434174e-02 0.000000e+00
 -2.075988e-02 9.964572e-02 0.000000e+00
 -2.755956e-02 8.901465e-02 0.000000e+00
 -1.903536e-02 9.177914e-02 0.000000e+00
 -1.316618e-01 1.328965e-02 0.000000e+00
 -1.352346e-01 1.645692e-02 0.000000e+00
 -1.714192e-01 1.620509e-02 0.000000e+00
 -1.610596e-01 1.200988e-02 0.000000e+00
 -1.693638e-01 1.838456e-02 0.000000e+00
 -1.199276e-01 3.427771e-02 0.000000e+00
 -1.071048e-01 2.542921e-02 0.000000e+00
 -1.680166e-01 2.837716e-02 0.000000e+00
 -1.817942e-01 2.497829e-02 0.000000e+00
 -7.840005e-02 1.692672e-02 0.000000e+00
 -1.482543e-01 8.185699e-02 0.000000e+00
 -1.476834e-01 1.075991e-01 0.000000e+00
 0.000000e+00 0.000000e+00 0.000000e+00
 -1.012167e-02 1.490402e-01 0.000000e+00
 -5.553092e-03 1.509959e-01 0.000000e+00
 -4.782742e-04 1.471595e-01 0.000000e+00
 -2.309335e-03 1.476011e-01 0.000000e+00
 -1.155783e-03 1.418340e-01 0.000000e+00
 -5.164073e-04 1.432531e-01 0.000000e+00
 -1.544190e-01 1.129416e-02 0.000000e+00
 -1.592348e-01 1.533469e-02 0.000000e+00
 -1.540749e-01 1.027049e-02 0.000000e+00
 -1.490471e-01 2.141695e-02 0.000000e+00
 -1.638171e-01 1.884928e-02 0.000000e+00
 -1.563532e-01 1.919314e-02 0.000000e+00
 -1.205708e-01 6.352637e-03 0.000000e+00
 -1.276986e-01 6.608033e-03 0.000000e+00
 -1.236418e-01 5.594049e-03 0.000000e+00
 -1.509696e-01 9.345935e-03 0.000000e+00
 -1.507406e-01 1.335468e-02 0.000000e+00
 -5.274845e-02 2.957087e-02 0.000000e+00
 -5.914062e-02 1.463513e-01 0.000000e+00
 -7.290082e-02 1.571627e-01 0.000000e+00
 1.866043e-03 1.118084e-01 0.000000e+00
 2.407557e-03 1.188424e-01 0.000000e+00
 1.892342e-03 1.344416e-01 0.000000e+00
 9.864296e-04 7.724593e-02 0.000000e+00
 -2.723643e-03 1.392007e-01 0.000000e+00
 2.082244e-03 1.239732e-01 0.000000e+00
 -6.086149e-02 5.440581e-03 0.000000e+00
 -5.876847e-02 3.443390e-03 0.000000e+00
 -6.533626e-02 5.774582e-03 0.000000e+00
 -1.362768e-03 8.023368e-02 0.000000e+00
 -2.891814e-03 1.132729e-01 0.000000e+00
 -4.086274e-04 1.042807e-01 0.000000e+00
 -4.280607e-04 1.221216e-01 0.000000e+00
 -1.192057e-03 1.305163e-01 0.000000e+00
 -2.457949e-03 1.424212e-01 0.000000e+00
 -1.436847e-03 1.432791e-01 0.000000e+00
 -2.507694e-03 1.429277e-01 0.000000e+00
 -1.278893e-01 1.727675e-02 0.000000e+00
 -1.268294e-01 1.361975e-02 0.000000e+00
 -1.156371e-01 6.714330e-03 0.000000e+00
 -1.071905e-01 6.418740e-03 0.000000e+00
 -1.249309e-01 1.023127e-02 0.000000e+00
 5.066709e-04 1.406255e-01 0.000000e+00
 2.245926e-04 1.429197e-01 0.000000e+00
 1.286781e-04 1.128999e-01 0.000000e+00
 -2.598989e-06 1.397883e-01 0.000000e+00
 -6.648626e-02 1.433105e-01 0.000000e+00
 -9.129038e-02 1.396738e-01 0.000000e+00
 -1.213108e-01 1.322578e-01 0.000000e+00
 -9.551725e-02 1.171143e-01 0.000000e+00
 -1.620513e-01 1.522878e-02 0.000000e+00
 -1.211031e-01 2.756413e-02 0.000000e+00
 -1.483340e-01 9.664131e-03 0.000000e+00
 -1.247246e-01 2.249428e-02 0.000000e+00
 -9.767149e-02 4.104039e-02 0.000000e+00
 -9.074692e-02 5.258884e-02 0.000000e+00