<?xml version="1.0"?>
<VTKFile type="UnstructuredGrid"  version="0.1"  >
<UnstructuredGrid>
<Piece  NumberOfPoints="505" NumberOfCells="928">
<Points>
<DataArray  type="Float32"  NumberOfComponents="3"  format="ascii">
0 0 0
1 0 0
0 1 0
1 0.5 0
0.5 0.5 0
0.5 1 0
0.1 0 0
0.2 0 0
0.3 0 0
0.4 0 0
0.5 0 0
0.6 0 0
0.7 0 0
0.8 0 0
0.9 0 0
0 0.9 0
0 0.8 0
0 0.7 0
0 0.6 0
0 0.5 0
0 0.4 0
0 0.3 0
0 0.2 0
0 0.1 0
0.9 0.5 0
0.8 0.5 0
0.7 0.5 0
0.6 0.5 0
0.5 0.6 0
0.5 0.7 0
0.5 0.8 0
0.5 0.9 0
0.1 1 0
0.2 1 0
0.3 1 0
0.4 1 0
1 0.1 0
1 0.2 0
1 0.3 0
1 0.4 0
0.300178 0.296564 0
0.247566 0.664879 0
0.639694 0.259804 0
0.06564 0.06472 0
0.04439 0.954144 0
0.932418 0.064715 0
0.951013 0.456419 0
0.437622 0.939659 0
0.195334 0.464441 0
0.483382 0.329596 0
0.834786 0.236295 0
0.307228 0.81139 0
0.178229 0.173372 0
0.366998 0.134199 0
0.547485 0.14214 0
0.124832 0.74927 0
0.160163 0.896658 0
0.342556 0.535243 0
0.147651 0.342018 0
0.729803 0.127878 0
0.725981 0.357775 0
0.121369 0.600441 0
0.372954 0.70814 0
0.908503 0.151525 0
0.89851 0.333305 0
0.556275 0.400898 0
0.259184 0.092178 0
0.46329 0.194362 0
0.423773 0.869712 0
0.22823 0.818162 0
0.081292 0.144905 0
0.082979 0.831935 0
0.549999 0.065419 0
0.371537 0.407588 0
0.642628 0.097865 0
0.459835 0.086595 0
0.108565 0.418567 0
0.273082 0.902112 0
0.256598 0.556659 0
0.11951 0.509541 0
0.234147 0.370527 0
0.097453 0.253261 0
0.638438 0.342389 0
0.554656 0.224779 0
0.373432 0.237603 0
0.339663 0.62579 0
0.27079 0.747786 0
0.733958 0.266592 0
0.928527 0.244458 0
0.853116 0.071497 0
0.818426 0.404817 0
0.280194 0.200604 0
0.417859 0.565185 0
0.147241 0.079056 0
0.389149 0.789957 0
0.42808 0.654642 0
0.343469 0.059202 0
0.086765 0.684153 0
0.162043 0.675011 0
0.809252 0.14201 0
0.364337 0.928607 0
0.077532 0.916553 0
0.159064 0.807906 0
0.302124 0.454032 0
0.205909 0.272176 0
0.449664 0.407415 0
0.66041 0.423241 0
0.562201 0.303789 0
0.802658 0.320211 0
0.614551 0.182931 0
0.390944 0.331035 0
0.687136 0.18846 0
0.070577 0.342498 0
0.741087 0.437361 0
0.176989 0.547528 0
0.710251 0.07409 0
0.192845 0.608574 0
0.171114 0.398277 0
0.058959 0.753084 0
0.904 0.425508 0
0.438039 0.730373 0
0.057223 0.475897 0
0.058502 0.552106 0
0.330493 0.750997 0
0.312295 0.699131 0
0.684882 0.307111 0
0.053312 0.627311 0
0.198798 0.743695 0
0.392326 0.069953 0
0.351519 0.860283 0
0.397134 0.477694 0
0.319385 0.371198 0
0.767351 0.069505 0
0.441954 0.271171 0
0.759504 0.192785 0
0.855661 0.457701 0
0.500847 0.264652 0
0.916209 0.0323575 0
0.966209 0.0323575 0
0.95 0 0
0.578137 0.450449 0
0.528137 0.450449 0
0.55 0.5 0
0.03282 0.08236 0
0.03282 0.03236 0
0 0.05 0
0.502969 0.404157 0
0.474832 0.453708 0
0.468811 0.91983 0
0.468811 0.96983 0
0.5 0.95 0
0.072195 0.977072 0
0.022195 0.977072 0
0.05 1 0
0.022195 0.927072 0
0 0.95 0
0.060961 0.935348 0
0.038766 0.908276 0
0.106441 0.071888 0
0.123621 0.039528 0
0.08282 0.03236 0
0.0414895 0.815967 0
0.0414895 0.865968 0
0 0.85 0
0.173621 0.039528 0
0.15 0 0
0.05 0 0
0.301327 0.07569 0
0.321735 0.029601 0
0.279592 0.046089 0
0.070969 0.792509 0
0.0294795 0.776542 0
0.0294795 0.726542 0
0 0.75 0
0.114267 0.111981 0
0.073466 0.104813 0
0.229592 0.046089 0
0.25 0 0
0.371735 0.029601 0
0.35 0 0
0.479917 0.0432975 0
0.429918 0.0432975 0
0.45 0 0
0.461562 0.140479 0
0.413416 0.110397 0
0.415144 0.16428 0
0.574999 0.0327095 0
0.525 0.0327095 0
0.55 0 0
0.596313 0.081642 0
0.621314 0.0489325 0
0.927507 0.440964 0
0.902 0.462754 0
0.925507 0.47821 0
0.0700385 0.655732 0
0.026656 0.663655 0
0.0433825 0.692076 0
0.026656 0.613655 0
0 0.65 0
0.276766 0.370862 0
0.309781 0.333881 0
0.267162 0.333545 0
0.458929 0.582593 0
0.458929 0.532593 0
0.5 0.55 0
0.422969 0.609913 0
0.46404 0.627321 0
0.43306 0.692508 0
0.46902 0.715186 0
0.46404 0.677321 0
0.46902 0.765186 0
0.5 0.75 0
0.180082 0.948329 0
0.130082 0.948329 0
0.15 1 0
0.87983 0.441605 0
0.87783 0.478851 0
0.975507 0.42821 0
0.975507 0.47821 0
1 0.45 0
0.676439 0.0859775 0
0.705125 0.037045 0
0.671314 0.0489325 0
0.779756 0.421089 0
0.770544 0.46868 0
0.809213 0.452408 0
0.738801 0.0717975 0
0.733675 0.0347525 0
0.95 0.5 0
0.720544 0.46868 0
0.75 0.5 0
0.029251 0.526053 0
0.029251 0.576053 0
0 0.55 0
0.089006 0.530824 0
0.0899355 0.576273 0
0.12044 0.554991 0
0.461886 0.884856 0
0.461886 0.834856 0
0.5 0.85 0
0.089571 0.380533 0
0.0352885 0.371249 0
0.0542825 0.409284 0
0.918515 0.197991 0
0.964263 0.222229 0
0.954252 0.175762 0
0.630205 0.46162 0
0.680205 0.46162 0
0.65 0.5 0
0.0352885 0.321249 0
0 0.35 0
0.0487265 0.226631 0
0.0487265 0.276631 0
0 0.25 0
0.286541 0.951056 0
0.236541 0.951056 0
0.25 1 0
0.382169 0.964303 0
0.332168 0.964303 0
0.35 1 0
0.966209 0.0823575 0
1 0.05 0
0.876558 0.0357485 0
0.826558 0.0357485 0
0.85 0 0
0.710547 0.227526 0
0.663415 0.224132 0
0.686826 0.263198 0
0.964263 0.272229 0
1 0.25 0
0.40098 0.934133 0
0.418811 0.96983 0
0.45 1 0
0.326813 0.219104 0
0.290186 0.248584 0
0.336805 0.267084 0
0.243052 0.23639 0
0.253043 0.28437 0
0.224721 0.582616 0
0.220205 0.636726 0
0.252082 0.610769 0
0.92046 0.10812 0
0.954252 0.125762 0
0.66166 0.32475 0
0.662288 0.283458 0
0.639066 0.301096 0
0.949255 0.366653 0
0.949255 0.316653 0
1 0.35 0
0.291542 0.723459 0
0.27993 0.682005 0
0.259178 0.706333 0
0.394055 0.89916 0
0.430698 0.904686 0
0.531524 0.28422 0
0.492115 0.297124 0
0.522791 0.316692 0
0.040646 0.122453 0
0.040646 0.172453 0
0 0.15 0
1 0.15 0
0.151681 0.262718 0
0.192069 0.222774 0
0.137841 0.213317 0
0.558428 0.264284 0
0.600947 0.281797 0
0.597175 0.242291 0
0.508973 0.20957 0
0.551071 0.183459 0
0.505387 0.168251 0
0.118847 0.906605 0
0.088766 0.958276 0
0.3123 0.881198 0
0.329373 0.835836 0
0.290155 0.856751 0
0.18042 0.709353 0
0.223182 0.704287 0
0.204805 0.669945 0
0.114037 0.464054 0
0.157422 0.486991 0
0.15195 0.441504 0
0.279361 0.505346 0
0.248729 0.459236 0
0.225966 0.51055 0
0.423399 0.442555 0
0.448567 0.488847 0
0.892767 0.068106 0
0.65 0 0
0.901255 0.379406 0
0.952 0.412754 0
0.858877 0.146767 0
0.822019 0.189153 0
0.871644 0.19391 0
0.14825 0.528535 0
0.186162 0.505985 0
0.178931 0.775801 0
0.161815 0.746482 0
0.141948 0.778588 0
0.29813 0.591225 0
0.34111 0.580516 0
0.299577 0.545951 0
0.913519 0.288882 0
0.881657 0.240376 0
0.866648 0.2848 0
0.664882 0.143162 0
0.708469 0.158169 0
0.686215 0.112871 0
0.768308 0.293401 0
0.818722 0.278253 0
0.784372 0.251443 0
0.407693 0.254387 0
0.452622 0.232766 0
0.418361 0.215983 0
0.559238 0.352343 0
0.519829 0.365247 0
0.269689 0.146391 0
0.323596 0.167402 0
0.313091 0.113188 0
0.367897 0.0645775 0
0.396163 0.0349765 0
0.220028 0.321352 0
0.17678 0.307097 0
0.190899 0.356272 0
0.584604 0.203855 0
0.581018 0.162535 0
0.250656 0.860137 0
0.267729 0.814776 0
0.359821 0.770477 0
0.31886 0.781193 0
0.348189 0.800674 0
0.124404 0.679582 0
0.141706 0.637726 0
0.104067 0.642297 0
0.216622 0.899385 0
0.203213 0.085617 0
0.162735 0.126214 0
0.218707 0.132775 0
0.0893725 0.199083 0
0.129761 0.159139 0
0.121022 0.819921 0
0.103905 0.790602 0
0.193647 0.813034 0
0.159614 0.852282 0
0.194196 0.85741 0
0.650843 0.185696 0
0.628589 0.140398 0
0.504917 0.076007 0
0.50366 0.114367 0
0.548742 0.103779 0
0.378761 0.595487 0
0.380208 0.550214 0
0.466523 0.368506 0
0.783675 0.0347525 0
0.75 0 0
0.595056 0.120002 0
0.20263 0.384402 0
0.183224 0.431359 0
0.214741 0.417484 0
0.084015 0.29788 0
0.109114 0.342258 0
0.122552 0.29764 0
0.370334 0.82512 0
0.387646 0.864998 0
0.406461 0.829835 0
0.355164 0.351116 0
0.345461 0.389393 0
0.38124 0.369312 0
0.177444 0.641792 0
0.157107 0.604507 0
0.0286115 0.437949 0
0.0286115 0.487949 0
0 0.45 0
0.184917 0.578051 0
0.216794 0.552094 0
0.310754 0.412615 0
0.268135 0.41228 0
0.13984 0.408422 0
0.159382 0.370147 0
0.128108 0.380293 0
0.784378 0.167398 0
0.797145 0.21454 0
0.649424 0.382815 0
0.693196 0.390508 0
0.682209 0.350082 0
0.471401 0.267911 0
0.482069 0.229507 0
0.600319 0.323089 0
0.597356 0.371644 0
0.370215 0.185901 0
0.420304 0.369225 0
0.410601 0.407502 0
0.5 0.65 0
0.293615 0.645334 0
0.325979 0.66246 0
0.342624 0.703635 0
0.356309 0.666965 0
0.24951 0.782974 0
0.289009 0.779588 0
0.810542 0.362514 0
0.76432 0.338993 0
0.772204 0.381296 0
0.70942 0.286852 0
0.705431 0.332443 0
0.729969 0.312184 0
0.831184 0.106754 0
0.88081 0.111511 0
0.700748 0.430301 0
0.733534 0.397568 0
0.850584 0.326758 0
0.229212 0.186988 0
0.407496 0.52144 0
0.369845 0.506468 0
0.413594 0.760165 0
0.405497 0.719256 0
0.381051 0.749049 0
0.444574 0.794979 0
0.383872 0.640216 0
0.400517 0.681391 0
0.355233 0.0967005 0
0.42608 0.078274 0
0.379662 0.102076 0
0.055907 0.589708 0
0.0873405 0.613876 0
0.072862 0.718619 0
0.0918955 0.751177 0
0.105798 0.716711 0
0.234794 0.74574 0
0.213514 0.780928 0
0.143437 0.712141 0
0.72332 0.190623 0
0.744653 0.160332 0
0.788301 0.105758 0
0.748577 0.0986915 0
0.769527 0.134944 0
0.357928 0.894445 0
0.318709 0.915359 0
0.0802555 0.874244 0
0.121571 0.864297 0
0.32234 0.494638 0
0.349629 0.465863 0
0.384335 0.442641 0
0.336831 0.43081 0
0.608343 0.412069 0
0.527752 0.244716 0
0.858468 0.369061 0
0.627123 0.221367 0
0.382188 0.284319 0
0.345561 0.3138 0
0.437163 0.330315 0
0.746731 0.229689 0
0.149179 0.573985 0
0.720027 0.100984 0
0.810234 0.070501 0
0.861213 0.415162 0
0.827831 0.478851 0
0.85 0.5 0
0.082894 0.447232 0
0.0883665 0.492719 0
0.0578625 0.514002 0
0.300642 0.749391 0
0.351723 0.729569 0
0.321394 0.725064 0
0.416449 0.301103 0
0.462668 0.300384 0
0.837044 0.431259 0
</DataArray>
</Points>
<Cells>
<DataArray  type="UInt32"  Name="connectivity"  format="ascii">
1 138 139 
14 137 139 
45 137 138 
137 138 139 
4 141 142 
27 140 142 
65 140 141 
140 141 142 
0 144 145 
23 143 145 
43 143 144 
143 144 145 
4 141 147 
65 141 146 
105 146 147 
141 146 147 
5 149 150 
31 148 150 
47 148 149 
148 149 150 
2 152 153 
32 151 153 
44 151 152 
151 152 153 
2 152 155 
15 154 155 
44 152 154 
152 154 155 
15 154 157 
44 154 156 
101 156 157 
154 156 157 
6 159 160 
43 158 160 
93 158 159 
158 159 160 
15 162 163 
16 161 163 
71 161 162 
161 162 163 
6 159 165 
7 164 165 
93 159 164 
159 164 165 
[...]
<PointData  Vectors="u"> 
<DataArray  type="Float32"  Name="u"  NumberOfComponents="3" format="ascii">
 0.000000e+00 0.000000e+00 0.000000e+00
 0.000000e+00 0.000000e+00 0.000000e+00
 0.000000e+00 0.000000e+00 0.000000e+00
 0.000000e+00 0.000000e+00 0.000000e+00
 0.000000e+00 0.000000e+00 0.000000e+00
 0.000000e+00 0.000000e+00 0.000000e+00
 0.000000e+00 0.000000e+00 0.000000e+00
 0.000000e+00 0.000000e+00 0.000000e+00
 0.000000e+00 0.000000e+00 0.000000e+00
 0.000000e+00 0.000000e+00 0.000000e+00
 0.000000e+00 0.000000e+00 0.000000e+00
 0.000000e+00 0.000000e+00 0.000000e+00
 0.000000e+00 0.000000e+00 0.000000e+00
 0.000000e+00 0.000000e+00 0.000000e+00
 0.000000e+00 0.000000e+00 0.000000e+00
 0.000000e+00 0.000000e+00 0.000000e+00
 0.000000e+00 0.000000e+00 0.000000e+00
 0.000000e+00 0.000000e+00 0.000000e+00
 0.000000e+00 0.000000e+00 0.000000e+00
 0.000000e+00 0.000000e+00 0.000000e+00
 0.000000e+00 0.000000e+00 0.000000e+00
 0.000000e+00 0.000000e+00 0.000000e+00
 0.000000e+00 0.000000e+00 0.000000e+00
 0.000000e+00 0.000000e+00 0.000000e+00
 0.000000e+00 0.000000e+00 0.000000e+00
 0.000000e+00 0.000000e+00 0.000000e+00
 0.000000e+00 0.000000e+00 0.000000e+00
 0.000000e+00 0.000000e+00 0.000000e+00
 0.000000e+00 0.000000e+00 0.000000e+00
 0.000000e+00 0.000000e+00 0.000000e+00
 0.000000e+00 0.000000e+00 0.000000e+00
 0.000000e+00 0.000000e+00 0.000000e+00
 1.394099e-03 -2.481167e-01 0.000000e+00
 2.715580e-03 -3.923527e-01 0.000000e+00
 2.847178e-03 -4.044519e-01 0.000000e+00
 1.607471e-03 -2.705927e-01 0.000000e+00
 2.733210e-01 5.137002e-03 0.000000e+00
 4.066522e-01 1.160991e-02 0.000000e+00
 3.917853e-01 1.330676e-02 0.000000e+00
 2.438807e-01 6.991203e-03 0.000000e+00
 1.812393e-01 -2.303317e-01 0.000000e+00
 3.380559e-02 -4.060856e-01 0.000000e+00
 4.277878e-01 -2.438270e-02 0.000000e+00
 -3.143163e-04 -4.712595e-05 0.000000e+00
 4.633251e-04 -1.052594e-01 0.000000e+00
 1.859686e-01 3.631477e-03 0.000000e+00
 9.731271e-02 2.598802e-03 0.000000e+00
 9.009336e-04 -1.736314e-01 0.000000e+00
 6.898478e-02 -3.045547e-01 0.000000e+00
 3.565830e-01 -1.963156e-01 0.000000e+00
 4.232127e-01 2.408158e-02 0.000000e+00
 1.023838e-02 -4.027312e-01 0.000000e+00
 6.257953e-02 -7.881726e-02 0.000000e+00
 2.076778e-01 -6.914672e-02 0.000000e+00
 3.430786e-01 -3.462350e-02 0.000000e+00
 8.638922e-03 -2.881490e-01 0.000000e+00
 3.539187e-03 -3.517015e-01 0.000000e+00
 9.474178e-02 -4.002438e-01 0.000000e+00
 4.923835e-02 -1.742149e-01 0.000000e+00
 3.552712e-01 9.423159e-03 0.000000e+00
 3.010776e-01 2.090001e-02 0.000000e+00
 1.963975e-02 -2.552309e-01 0.000000e+00
 1.847002e-02 -3.420669e-01 0.000000e+00
 3.713835e-01 1.335258e-02 0.000000e+00
 3.532613e-01 2.059499e-02 0.000000e+00
 2.425669e-01 -7.582041e-02 0.000000e+00
 9.042056e-02 -3.622103e-02 0.000000e+00
 3.278399e-01 -1.008662e-01 0.000000e+00
 1.935326e-03 -2.146155e-01 0.000000e+00
 9.568562e-03 -4.060853e-01 0.000000e+00
 9.744822e-03 -1.854929e-02 0.000000e+00
 2.366668e-03 -2.039843e-01 0.000000e+00
 2.037658e-01 -6.545962e-03 0.000000e+00
 2.156772e-01 -3.445647e-01 0.000000e+00
 2.969795e-01 -9.581384e-04 0.000000e+00
 2.165170e-01 -2.424318e-02 0.000000e+00
 2.611836e-02 -1.631191e-01 0.000000e+00
 4.592342e-03 -4.132204e-01 0.000000e+00
 6.839175e-02 -3.923281e-01 0.000000e+00
 2.649495e-02 -2.216812e-01 0.000000e+00
 1.123687e-01 -2.716012e-01 0.000000e+00
 2.000907e-02 -7.075615e-02 0.000000e+00
 3.433385e-01 -1.712934e-02 0.000000e+00
 4.040314e-01 -7.275114e-02 0.000000e+00
 2.550452e-01 -1.689309e-01 0.000000e+00
 4.564202e-02 -3.943867e-01 0.000000e+00
 1.862506e-02 -4.134997e-01 0.000000e+00
 4.208062e-01 1.656637e-02 0.000000e+00
 4.169890e-01 1.846647e-02 0.000000e+00
 2.140023e-01 5.880680e-03 0.000000e+00
 2.066075e-01 1.705043e-02 0.000000e+00
 1.537590e-01 -1.308113e-01 0.000000e+00
 4.903163e-02 -3.016888e-01 0.000000e+00
 2.073199e-02 -1.582290e-02 0.000000e+00
 7.305214e-03 -3.022369e-01 0.000000e+00
 1.421542e-02 -2.317901e-01 0.000000e+00
 1.056941e-01 -1.686991e-02 0.000000e+00
 7.275603e-03 -1.993444e-01 0.000000e+00
 2.040951e-02 -3.370160e-01 0.000000e+00
 3.697612e-01 1.497586e-02 0.000000e+00
 2.696097e-03 -3.403511e-01 0.000000e+00
 1.146359e-03 -1.929778e-01 0.000000e+00
 7.548301e-03 -3.469037e-01 0.000000e+00
 1.358797e-01 -3.695414e-01 0.000000e+00
 9.250620e-02 -1.706411e-01 0.000000e+00
 2.674810e-01 -2.826149e-01 0.000000e+00
 1.318003e-01 7.807936e-03 0.000000e+00
 3.996998e-01 -9.454706e-02 0.000000e+00
 3.657961e-01 2.749787e-02 0.000000e+00
 4.058590e-01 -2.462864e-02 0.000000e+00
 2.734163e-01 -2.657813e-01 0.000000e+00
 4.201475e-01 1.179409e-03 0.000000e+00
 1.087388e-02 -7.315640e-02 0.000000e+00
 1.065038e-01 1.140584e-02 0.000000e+00
 4.443261e-02 -3.229169e-01 0.000000e+00
 2.374967e-01 4.764664e-03 0.000000e+00
 3.738757e-02 -3.592059e-01 0.000000e+00
 6.254517e-02 -2.374849e-01 0.000000e+00
 2.336320e-03 -1.374850e-01 0.000000e+00
 1.721622e-01 7.999278e-03 0.000000e+00
 5.213391e-03 -1.857296e-01 0.000000e+00
 6.921537e-03 -8.892932e-02 0.000000e+00
 6.195394e-03 -1.088151e-01 0.000000e+00
 1.637672e-02 -3.891271e-01 0.000000e+00
 2.687734e-02 -4.044603e-01 0.000000e+00
 3.898911e-01 3.681720e-03 0.000000e+00
 3.961053e-03 -1.095931e-01 0.000000e+00
 1.607279e-02 -3.845100e-01 0.000000e+00
 1.499802e-01 -2.099400e-02 0.000000e+00
 5.280955e-03 -3.606644e-01 0.000000e+00
 1.536892e-01 -3.686844e-01 0.000000e+00
 1.877664e-01 -3.091818e-01 0.000000e+00
 2.190156e-01 5.895186e-03 0.000000e+00
 3.308318e-01 -1.810230e-01 0.000000e+00
 4.211875e-01 1.635101e-02 0.000000e+00
 8.144805e-02 4.360173e-03 0.000000e+00
 3.802929e-01 -1.357462e-01 0.000000e+00
 8.959371e-02 1.338787e-03 0.000000e+00
 8.660328e-02 1.159637e-03 0.000000e+00
 0.000000e+00 0.000000e+00 0.000000e+00
 7.441100e-02 -1.277435e-02 0.000000e+00
 1.309677e-01 -7.792082e-02 0.000000e+00
 0.000000e+00 0.000000e+00 0.000000e+00
 -4.388017e-04 2.416278e-03 0.000000e+00
 -1.643056e-03 1.637866e-03 0.000000e+00
 0.000000e+00 0.000000e+00 0.000000e+00
 2.721880e-01 -1.766074e-01 0.000000e+00
 1.826135e-01 -2.231465e-01 0.000000e+00
 3.072631e-04 -8.174171e-02 0.000000e+00
 3.721349e-04 -8.081797e-02 0.000000e+00
 0.000000e+00 0.000000e+00 0.000000e+00
 9.257215e-04 -1.807649e-01 0.000000e+00
 2.265405e-04 -4.684341e-02 0.000000e+00
 6.148897e-04 -1.211328e-01 0.000000e+00
 1.195745e-04 -4.650851e-02 0.000000e+00
 0.000000e+00 0.000000e+00 0.000000e+00
 7.275812e-04 -1.500625e-01 0.000000e+00
 3.220014e-04 -8.885760e-02 0.000000e+00
 6.421530e-03 -6.915577e-03 0.000000e+00
 2.372038e-03 -2.858172e-03 0.000000e+00
 -2.099550e-03 6.479494e-05 0.000000e+00
 8.203482e-04 -9.525561e-02 0.000000e+00
 5.233682e-04 -9.662558e-02 0.000000e+00
 0.000000e+00 0.000000e+00 0.000000e+00
 1.284964e-02 -5.452480e-03 0.000000e+00
 0.000000e+00 0.000000e+00 0.000000e+00
 0.000000e+00 0.000000e+00 0.000000e+00
 1.031889e-01 -2.673062e-02 0.000000e+00
 4.814345e-02 -4.939183e-03 0.000000e+00
 5.663235e-02 -1.099956e-02 0.000000e+00
 2.446772e-03 -1.714837e-01 0.000000e+00
 5.800779e-04 -6.205043e-02 0.000000e+00
 8.024718e-04 -6.005022e-02 0.000000e+00
 0.000000e+00 0.000000e+00 0.000000e+00
 1.667627e-02 -2.050411e-02 0.000000e+00
 4.578205e-03 -6.454882e-03 0.000000e+00
 3.578573e-02 -9.879480e-03 0.000000e+00
 0.000000e+00 0.000000e+00 0.000000e+00
 6.282897e-02 -4.684833e-03 0.000000e+00
 0.000000e+00 0.000000e+00 0.000000e+00
 1.271744e-01 -5.819718e-03 0.000000e+00
 1.122456e-01 -7.799486e-03 0.000000e+00
 0.000000e+00 0.000000e+00 0.000000e+00
 2.891945e-01 -5.841004e-02 0.000000e+00
 2.222094e-01 -4.490651e-02 0.000000e+00
 2.696269e-01 -8.863043e-02 0.000000e+00
 1.096996e-01 -6.647286e-04 0.000000e+00
 1.047952e-01 -2.057204e-03 0.000000e+00
 0.000000e+00 0.000000e+00 0.000000e+00
 2.539152e-01 -4.897436e-03 0.000000e+00
 1.648612e-01 2.490951e-05 0.000000e+00
 1.356890e-01 4.756127e-03 0.000000e+00
 7.537821e-02 2.685287e-03 0.000000e+00
 4.073411e-02 1.035042e-03 0.000000e+00
 5.767278e-03 -1.549354e-01 0.000000e+00
 9.259323e-04 -4.968689e-02 0.000000e+00
 1.965825e-03 -9.196383e-02 0.000000e+00
 1.188577e-03 -4.620017e-02 0.000000e+00
 0.000000e+00 0.000000e+00 0.000000e+00
 1.489183e-01 -2.946981e-01 0.000000e+00
 1.876830e-01 -2.702129e-01 0.000000e+00
 1.459315e-01 -2.567335e-01 0.000000e+00
 1.460438e-02 -1.619643e-01 0.000000e+00
 4.681748e-02 -2.036102e-01 0.000000e+00
 0.000000e+00 0.000000e+00 0.000000e+00
 2.598111e-02 -2.636745e-01 0.000000e+00
 6.127922e-03 -1.232962e-01 0.000000e+00
 8.601214e-03 -2.073070e-01 0.000000e+00
 1.845136e-03 -9.038097e-02 0.000000e+00
 3.463890e-03 -1.121042e-01 0.000000e+00
 1.092687e-03 -8.601412e-02 0.000000e+00
 0.000000e+00 0.000000e+00 0.000000e+00
 2.806053e-03 -3.751851e-01 0.000000e+00
 2.062163e-03 -3.074700e-01 0.000000e+00
 2.170921e-03 -3.393637e-01 0.000000e+00
 1.266375e-01 6.330434e-03 0.000000e+00
 3.513796e-02 1.314760e-03 0.000000e+00
 1.744869e-01 4.783613e-03 0.000000e+00
 4.348742e-02 1.026485e-03 0.000000e+00
 1.177809e-01 2.851117e-03 0.000000e+00
 2.703514e-01 2.924025e-03 0.000000e+00
 1.220838e-01 2.175413e-03 0.000000e+00
 1.648354e-01 1.988444e-03 0.000000e+00
 1.573642e-01 1.487983e-02 0.000000e+00
 4.108993e-02 4.118039e-03 0.000000e+00
 8.535295e-02 6.646299e-03 0.000000e+00
 2.287576e-01 5.648715e-03 0.000000e+00
 1.130372e-01 2.054311e-03 0.000000e+00
 0.000000e+00 0.000000e+00 0.000000e+00
 3.141665e-02 4.394597e-03 0.000000e+00
 0.000000e+00 0.000000e+00 0.000000e+00
 1.806610e-03 -4.305044e-02 0.000000e+00
 1.581424e-03 -4.848832e-02 0.000000e+00
 0.000000e+00 0.000000e+00 0.000000e+00
 1.462019e-02 -1.699822e-01 0.000000e+00
 1.284615e-02 -1.848675e-01 0.000000e+00
 2.325127e-02 -2.399062e-01 0.000000e+00
 5.376792e-04 -1.035374e-01 0.000000e+00
 8.500539e-04 -1.047182e-01 0.000000e+00
 0.000000e+00 0.000000e+00 0.000000e+00
 1.813792e-02 -1.158788e-01 0.000000e+00
 2.587590e-03 -3.134347e-02 0.000000e+00
 6.488995e-03 -6.707461e-02 0.000000e+00
 4.099779e-01 1.675213e-02 0.000000e+00
 4.151268e-01 1.437988e-02 0.000000e+00
 3.927094e-01 1.239791e-02 0.000000e+00
 3.197034e-02 3.537272e-03 0.000000e+00
 3.733865e-02 5.407443e-03 0.000000e+00
 0.000000e+00 0.000000e+00 0.000000e+00
 2.383695e-03 -2.367434e-02 0.000000e+00
 0.000000e+00 0.000000e+00 0.000000e+00
 4.221951e-03 -1.969324e-02 0.000000e+00
 4.643444e-03 -2.988852e-02 0.000000e+00
 0.000000e+00 0.000000e+00 0.000000e+00
 3.215862e-03 -4.100305e-01 0.000000e+00
 3.230737e-03 -4.104695e-01 0.000000e+00
 2.955336e-03 -4.133533e-01 0.000000e+00
 1.982845e-03 -3.084192e-01 0.000000e+00
 2.714798e-03 -3.807364e-01 0.000000e+00
 2.372106e-03 -3.600981e-01 0.000000e+00
 2.318238e-01 4.386756e-03 0.000000e+00
 1.383408e-01 2.028952e-03 0.000000e+00
 1.032863e-01 1.865577e-03 0.000000e+00
 1.076009e-01 2.173031e-03 0.000000e+00
 0.000000e+00 0.000000e+00 0.000000e+00
 4.324809e-01 7.975957e-03 0.000000e+00
 4.313751e-01 -9.819620e-03 0.000000e+00
 4.261273e-01 5.348831e-04 0.000000e+00
 4.082073e-01 1.560550e-02 0.000000e+00
 4.145309e-01 1.331286e-02 0.000000e+00
 1.799659e-03 -2.694508e-01 0.000000e+00
 1.276467e-03 -2.248462e-01 0.000000e+00
 7.288008e-04 -1.362712e-01 0.000000e+00
 2.033354e-01 -1.527905e-01 0.000000e+00
 1.698977e-01 -1.794346e-01 0.000000e+00
 2.194841e-01 -2.030478e-01 0.000000e+00
 1.233874e-01 -1.558414e-01 0.000000e+00
 1.349816e-01 -2.042706e-01 0.000000e+00
 5.152061e-02 -3.800130e-01 0.000000e+00
 3.685390e-02 -3.880733e-01 0.000000e+00
 4.893622e-02 -4.015028e-01 0.000000e+00
 2.972170e-01 8.224740e-03 0.000000e+00
 3.281699e-01 8.414196e-03 0.000000e+00
 3.689996e-01 -5.939408e-03 0.000000e+00
 4.149957e-01 -1.060751e-02 0.000000e+00
 4.021537e-01 -2.344502e-02 0.000000e+00
 3.068042e-01 1.259432e-02 0.000000e+00
 3.756692e-01 1.617726e-02 0.000000e+00
 3.366410e-01 1.110693e-02 0.000000e+00
 2.268123e-02 -4.110619e-01 0.000000e+00
 3.140392e-02 -4.126960e-01 0.000000e+00
 2.557227e-02 -4.117098e-01 0.000000e+00
 2.480074e-03 -2.858136e-01 0.000000e+00
 1.244655e-03 -1.942353e-01 0.000000e+00
 3.981277e-01 -1.203418e-01 0.000000e+00
 3.731431e-01 -1.661396e-01 0.000000e+00
 3.820627e-01 -1.430431e-01 0.000000e+00
 1.325067e-03 -4.593460e-04 0.000000e+00
 2.252797e-03 -6.086558e-03 0.000000e+00
 0.000000e+00 0.000000e+00 0.000000e+00
 3.627293e-01 8.657753e-03 0.000000e+00
 5.084739e-02 -1.253323e-01 0.000000e+00
 7.850108e-02 -1.225128e-01 0.000000e+00
 3.975540e-02 -8.319831e-02 0.000000e+00
 4.112206e-01 -8.741587e-02 0.000000e+00
 4.167756e-01 -5.429640e-02 0.000000e+00
 4.234294e-01 -5.023099e-02 0.000000e+00
 3.705487e-01 -9.132387e-02 0.000000e+00
 3.817859e-01 -5.369792e-02 0.000000e+00
 3.435324e-01 -6.454983e-02 0.000000e+00
 2.293245e-03 -2.858247e-01 0.000000e+00
 1.233209e-03 -2.216756e-01 0.000000e+00
 5.210588e-03 -3.982408e-01 0.000000e+00
 7.526544e-03 -3.859771e-01 0.000000e+00
 6.916591e-03 -4.094899e-01 0.000000e+00
 1.864932e-02 -3.639171e-01 0.000000e+00
 2.375555e-02 -3.981336e-01 0.000000e+00
 2.777455e-02 -3.816519e-01 0.000000e+00
 2.700219e-02 -1.929385e-01 0.000000e+00
 4.535079e-02 -2.714682e-01 0.000000e+00
 4.739283e-02 -2.401663e-01 0.000000e+00
 9.775679e-02 -3.859250e-01 0.000000e+00
 1.015014e-01 -3.457548e-01 0.000000e+00
 7.326804e-02 -3.559474e-01 0.000000e+00
 2.086272e-01 -3.341374e-01 0.000000e+00
 1.259493e-01 -2.794282e-01 0.000000e+00
 1.996143e-01 4.766398e-03 0.000000e+00
 0.000000e+00 0.000000e+00 0.000000e+00
 2.772944e-01 1.528818e-02 0.000000e+00
 2.104315e-01 7.315744e-03 0.000000e+00
 3.705933e-01 1.514830e-02 0.000000e+00
 4.140041e-01 1.990874e-02 0.000000e+00
 4.118505e-01 1.943586e-02 0.000000e+00
 3.619394e-02 -2.765799e-01 0.000000e+00
 5.620515e-02 -3.161880e-01 0.000000e+00
 1.123591e-02 -3.683530e-01 0.000000e+00
 1.255976e-02 -3.459042e-01 0.000000e+00
 8.302224e-03 -3.201573e-01 0.000000e+00
 6.124137e-02 -4.093019e-01 0.000000e+00
 6.620621e-02 -3.988330e-01 0.000000e+00
 8.315059e-02 -4.038603e-01 0.000000e+00
 3.986603e-01 2.072363e-02 0.000000e+00
 4.196990e-01 2.222379e-02 0.000000e+00
 4.016376e-01 2.499487e-02 0.000000e+00
 3.764256e-01 -1.147170e-03 0.000000e+00
 3.963172e-01 7.005158e-03 0.000000e+00
 3.293902e-01 4.247470e-03 0.000000e+00
 3.975065e-01 2.474599e-02 0.000000e+00
 4.073919e-01 2.674455e-02 0.000000e+00
 4.235589e-01 2.363532e-02 0.000000e+00
 2.938887e-01 -1.782772e-01 0.000000e+00
 3.335618e-01 -1.389079e-01 0.000000e+00
 2.955016e-01 -1.366458e-01 0.000000e+00
 3.468604e-01 -9.725690e-02 0.000000e+00
 3.344655e-01 -1.548493e-01 0.000000e+00
 1.291500e-01 -7.971183e-02 0.000000e+00
 1.861301e-01 -1.018067e-01 0.000000e+00
 1.469365e-01 -5.374648e-02 0.000000e+00
 1.274811e-01 -1.909344e-02 0.000000e+00
 8.144259e-02 -5.659000e-03 0.000000e+00
 1.045493e-01 -2.211028e-01 0.000000e+00
 6.981201e-02 -1.780108e-01 0.000000e+00
 7.927435e-02 -2.275968e-01 0.000000e+00
 4.083469e-01 -4.586577e-02 0.000000e+00
 3.783880e-01 -3.169638e-02 0.000000e+00
 6.737498e-03 -4.130052e-01 0.000000e+00
 1.037463e-02 -4.138054e-01 0.000000e+00
 1.170320e-02 -3.545069e-01 0.000000e+00
 1.305914e-02 -3.965287e-01 0.000000e+00
 9.538773e-03 -3.676368e-01 0.000000e+00
 1.356037e-02 -2.780051e-01 0.000000e+00
 2.089963e-02 -2.998320e-01 0.000000e+00
 1.248097e-02 -2.306181e-01 0.000000e+00
 4.422680e-03 -4.019462e-01 0.000000e+00
 5.075212e-02 -2.704319e-02 0.000000e+00
 4.301081e-02 -4.260939e-02 0.000000e+00
 8.267274e-02 -6.091142e-02 0.000000e+00
 1.517699e-02 -4.160111e-02 0.000000e+00
 3.071990e-02 -4.777849e-02 0.000000e+00
 4.761600e-03 -2.865432e-01 0.000000e+00
 4.772528e-03 -2.497881e-01 0.000000e+00
 8.869927e-03 -3.842124e-01 0.000000e+00
 5.152805e-03 -3.496787e-01 0.000000e+00
 6.000108e-03 -3.861935e-01 0.000000e+00
 4.151311e-01 -1.070020e-02 0.000000e+00
 3.677040e-01 -9.458174e-03 0.000000e+00
 2.158402e-01 -1.432360e-02 0.000000e+00
 2.849236e-01 -3.181274e-02 0.000000e+00
 2.879356e-01 -1.816790e-02 0.000000e+00
 5.013372e-02 -3.604481e-01 0.000000e+00
 7.834289e-02 -3.731558e-01 0.000000e+00
 3.187647e-01 -2.405116e-01 0.000000e+00
 1.085069e-01 2.214533e-03 0.000000e+00
 0.000000e+00 0.000000e+00 0.000000e+00
 3.303670e-01 -1.331189e-02 0.000000e+00
 8.589873e-02 -2.587993e-01 0.000000e+00
 6.679208e-02 -2.722022e-01 0.000000e+00
 9.015493e-02 -2.927722e-01 0.000000e+00
 1.523779e-02 -7.462806e-02 0.000000e+00
 2.698232e-02 -1.267426e-01 0.000000e+00
 3.363363e-02 -1.190395e-01 0.000000e+00
 6.385805e-03 -3.343880e-01 0.000000e+00
 3.642778e-03 -3.004907e-01 0.000000e+00
 3.888733e-03 -2.609463e-01 0.000000e+00
 2.298440e-01 -2.929612e-01 0.000000e+00
 2.045436e-01 -3.300109e-01 0.000000e+00
 2.490313e-01 -3.076540e-01 0.000000e+00
 2.798581e-02 -3.499909e-01 0.000000e+00
 2.889448e-02 -3.150210e-01 0.000000e+00
 1.766859e-03 -3.094684e-02 0.000000e+00
 1.802463e-03 -3.743688e-02 0.000000e+00
 0.000000e+00 0.000000e+00 0.000000e+00
 4.132745e-02 -3.424695e-01 0.000000e+00
 5.754551e-02 -3.647963e-01 0.000000e+00
 1.631554e-01 -3.433508e-01 0.000000e+00
 1.302421e-01 -3.252315e-01 0.000000e+00
 4.272871e-02 -2.048567e-01 0.000000e+00
 5.644191e-02 -2.056680e-01 0.000000e+00
 3.690366e-02 -1.729519e-01 0.000000e+00
 4.014169e-01 1.671294e-02 0.000000e+00
 4.256801e-01 2.164491e-02 0.000000e+00
 2.479768e-01 -5.408049e-04 0.000000e+00
 2.231548e-01 1.467862e-02 0.000000e+00
 3.197896e-01 8.235830e-03 0.000000e+00
 3.575337e-01 -1.600471e-01 0.000000e+00
 3.579697e-01 -1.207829e-01 0.000000e+00
 3.815395e-01 -5.401304e-02 0.000000e+00
 2.942772e-01 -4.340039e-02 0.000000e+00
 2.380134e-01 -1.165501e-01 0.000000e+00
 2.853395e-01 -2.893253e-01 0.000000e+00
 2.458090e-01 -3.275768e-01 0.000000e+00
 0.000000e+00 0.000000e+00 0.000000e+00
 4.151168e-02 -4.113196e-01 0.000000e+00
 3.506010e-02 -3.994927e-01 0.000000e+00
 2.345579e-02 -3.820107e-01 0.000000e+00
 2.988620e-02 -3.722650e-01 0.000000e+00
 1.360532e-02 -4.119515e-01 0.000000e+00
 1.410599e-02 -4.108106e-01 0.000000e+00
 2.975591e-01 2.473904e-02 0.000000e+00
 3.370409e-01 2.575821e-02 0.000000e+00
 2.530151e-01 2.296409e-02 0.000000e+00
 4.083336e-01 1.141307e-02 0.000000e+00
 3.507550e-01 1.483146e-02 0.000000e+00
 3.787923e-01 1.923653e-02 0.000000e+00
 3.049228e-01 1.073845e-02 0.000000e+00
 3.087760e-01 1.015410e-02 0.000000e+00
 1.162451e-01 1.179606e-02 0.000000e+00
 2.081129e-01 1.910030e-02 0.000000e+00
 3.587503e-01 2.553334e-02 0.000000e+00
 1.049590e-01 -1.074931e-01 0.000000e+00
 9.532811e-02 -3.479041e-01 0.000000e+00
 1.197663e-01 -3.885134e-01 0.000000e+00
 6.730327e-03 -2.496079e-01 0.000000e+00
 1.140668e-02 -2.753633e-01 0.000000e+00
 1.177481e-02 -3.222540e-01 0.000000e+00
 2.350629e-03 -1.592524e-01 0.000000e+00
 3.122630e-02 -3.385160e-01 0.000000e+00
 1.761356e-02 -2.945764e-01 0.000000e+00
 1.637745e-01 -4.030240e-02 0.000000e+00
 1.833507e-01 -2.334016e-02 0.000000e+00
 1.878337e-01 -4.275439e-02 0.000000e+00
 5.039544e-03 -1.098699e-01 0.000000e+00
 1.047862e-02 -1.880691e-01 0.000000e+00
 4.331063e-03 -1.700853e-01 0.000000e+00
 5.227073e-03 -2.194783e-01 0.000000e+00
 8.345421e-03 -2.465018e-01 0.000000e+00
 1.799521e-02 -4.063843e-01 0.000000e+00
 1.268228e-02 -3.972371e-01 0.000000e+00
 1.364065e-02 -3.155856e-01 0.000000e+00
 4.216968e-01 1.021754e-02 0.000000e+00
 3.974687e-01 1.259758e-02 0.000000e+00
 3.081767e-01 1.048645e-02 0.000000e+00
 2.966740e-01 8.606661e-03 0.000000e+00
 3.635702e-01 1.292849e-02 0.000000e+00
 3.692288e-03 -3.507989e-01 0.000000e+00
 3.774805e-03 -3.931987e-01 0.000000e+00
 1.592824e-03 -1.988274e-01 0.000000e+00
 3.268484e-03 -2.897261e-01 0.000000e+00
 1.201921e-01 -3.940591e-01 0.000000e+00
 1.531729e-01 -3.839925e-01 0.000000e+00
 1.920042e-01 -3.650563e-01 0.000000e+00
 1.728015e-01 -3.625964e-01 0.000000e+00
 1.763595e-01 -1.515307e-02 0.000000e+00
 3.949269e-01 -1.021706e-01 0.000000e+00
 2.912695e-01 2.056913e-02 0.000000e+00
 4.267174e-01 -2.740519e-02 0.000000e+00
 2.691409e-01 -2.174771e-01 0.000000e+00
 2.276208e-01 -2.533891e-01 0.000000e+00
 3.202531e-01 -2.410579e-01 0.000000e+00