<?xml version="1.0"?>
<VTKFile type="UnstructuredGrid"  version="0.1"  >
<UnstructuredGrid>
<Piece  NumberOfPoints="505" NumberOfCells="928">
<Points>
<DataArray  type="Float32"  NumberOfComponents="3"  format="ascii">
0 0 0
1 0 0
0 1 0
1 0.5 0
0.5 0.5 0
0.5 1 0
0.1 0 0
0.2 0 0
0.3 0 0
0.4 0 0
0.5 0 0
0.6 0 0
0.7 0 0
0.8 0 0
0.9 0 0
0 0.9 0
0 0.8 0
0 0.7 0
0 0.6 0
0 0.5 0
0 0.4 0
0 0.3 0
0 0.2 0
0 0.1 0
0.9 0.5 0
0.8 0.5 0
0.7 0.5 0
0.6 0.5 0
0.5 0.6 0
0.5 0.7 0
0.5 0.8 0
0.5 0.9 0
0.1 1 0
0.2 1 0
0.3 1 0
0.4 1 0
1 0.1 0
1 0.2 0
1 0.3 0
1 0.4 0
0.300178 0.296564 0
0.247566 0.664879 0
0.639694 0.259804 0
0.06564 0.06472 0
0.04439 0.954144 0
0.932418 0.064715 0
0.951013 0.456419 0
0.437622 0.939659 0
0.195334 0.464441 0
0.483382 0.329596 0
0.834786 0.236295 0
0.307228 0.81139 0
0.178229 0.173372 0
0.366998 0.134199 0
0.547485 0.14214 0
0.124832 0.74927 0
0.160163 0.896658 0
0.342556 0.535243 0
0.147651 0.342018 0
0.729803 0.127878 0
0.725981 0.357775 0
0.121369 0.600441 0
0.372954 0.70814 0
0.908503 0.151525 0
0.89851 0.333305 0
0.556275 0.400898 0
0.259184 0.092178 0
0.46329 0.194362 0
0.423773 0.869712 0
0.22823 0.818162 0
0.081292 0.144905 0
0.082979 0.831935 0
0.549999 0.065419 0
0.371537 0.407588 0
0.642628 0.097865 0
0.459835 0.086595 0
0.108565 0.418567 0
0.273082 0.902112 0
0.256598 0.556659 0
0.11951 0.509541 0
0.234147 0.370527 0
0.097453 0.253261 0
0.638438 0.342389 0
0.554656 0.224779 0
0.373432 0.237603 0
0.339663 0.62579 0
0.27079 0.747786 0
0.733958 0.266592 0
0.928527 0.244458 0
0.853116 0.071497 0
0.818426 0.404817 0
0.280194 0.200604 0
0.417859 0.565185 0
0.147241 0.079056 0
0.389149 0.789957 0
0.42808 0.654642 0
0.343469 0.059202 0
0.086765 0.684153 0
0.162043 0.675011 0
0.809252 0.14201 0
0.364337 0.928607 0
0.077532 0.916553 0
0.159064 0.807906 0
0.302124 0.454032 0
0.205909 0.272176 0
0.449664 0.407415 0
0.66041 0.423241 0
0.562201 0.303789 0
0.802658 0.320211 0
0.614551 0.182931 0
0.390944 0.331035 0
0.687136 0.18846 0
0.070577 0.342498 0
0.741087 0.437361 0
0.176989 0.547528 0
0.710251 0.07409 0
0.192845 0.608574 0
0.171114 0.398277 0
0.058959 0.753084 0
0.904 0.425508 0
0.438039 0.730373 0
0.057223 0.475897 0
0.058502 0.552106 0
0.330493 0.750997 0
0.312295 0.699131 0
0.684882 0.307111 0
0.053312 0.627311 0
0.198798 0.743695 0
0.392326 0.069953 0
0.351519 0.860283 0
0.397134 0.477694 0
0.319385 0.371198 0
0.767351 0.069505 0
0.441954 0.271171 0
0.759504 0.192785 0
0.855661 0.457701 0
0.500847 0.264652 0
0.916209 0.0323575 0
0.966209 0.0323575 0
0.95 0 0
0.578137 0.450449 0
0.528137 0.450449 0
0.55 0.5 0
0.03282 0.08236 0
0.03282 0.03236 0
0 0.05 0
0.502969 0.404157 0
0.474832 0.453708 0
0.468811 0.91983 0
0.468811 0.96983 0
0.5 0.95 0
0.072195 0.977072 0
0.022195 0.977072 0
0.05 1 0
0.022195 0.927072 0
0 0.95 0
0.060961 0.935348 0
0.038766 0.908276 0
0.106441 0.071888 0
0.123621 0.039528 0
0.08282 0.03236 0
0.0414895 0.815967 0
0.0414895 0.865968 0
0 0.85 0
0.173621 0.039528 0
0.15 0 0
0.05 0 0
0.301327 0.07569 0
0.321735 0.029601 0
0.279592 0.046089 0
0.070969 0.792509 0
0.0294795 0.776542 0
0.0294795 0.726542 0
0 0.75 0
0.114267 0.111981 0
0.073466 0.104813 0
0.229592 0.046089 0
0.25 0 0
0.371735 0.029601 0
0.35 0 0
0.479917 0.0432975 0
0.429918 0.0432975 0
0.45 0 0
0.461562 0.140479 0
0.413416 0.110397 0
0.415144 0.16428 0
0.574999 0.0327095 0
0.525 0.0327095 0
0.55 0 0
0.596313 0.081642 0
0.621314 0.0489325 0
0.927507 0.440964 0
0.902 0.462754 0
0.925507 0.47821 0
0.0700385 0.655732 0
0.026656 0.663655 0
0.0433825 0.692076 0
0.026656 0.613655 0
0 0.65 0
0.276766 0.370862 0
0.309781 0.333881 0
0.267162 0.333545 0
0.458929 0.582593 0
0.458929 0.532593 0
0.5 0.55 0
0.422969 0.609913 0
0.46404 0.627321 0
0.43306 0.692508 0
0.46902 0.715186 0
0.46404 0.677321 0
0.46902 0.765186 0
0.5 0.75 0
0.180082 0.948329 0
0.130082 0.948329 0
0.15 1 0
0.87983 0.441605 0
0.87783 0.478851 0
0.975507 0.42821 0
0.975507 0.47821 0
1 0.45 0
0.676439 0.0859775 0
0.705125 0.037045 0
0.671314 0.0489325 0
0.779756 0.421089 0
0.770544 0.46868 0
0.809213 0.452408 0
0.738801 0.0717975 0
0.733675 0.0347525 0
0.95 0.5 0
0.720544 0.46868 0
0.75 0.5 0
0.029251 0.526053 0
0.029251 0.576053 0
0 0.55 0
0.089006 0.530824 0
0.0899355 0.576273 0
0.12044 0.554991 0
0.461886 0.884856 0
0.461886 0.834856 0
0.5 0.85 0
0.089571 0.380533 0
0.0352885 0.371249 0
0.0542825 0.409284 0
0.918515 0.197991 0
0.964263 0.222229 0
0.954252 0.175762 0
0.630205 0.46162 0
0.680205 0.46162 0
0.65 0.5 0
0.0352885 0.321249 0
0 0.35 0
0.0487265 0.226631 0
0.0487265 0.276631 0
0 0.25 0
0.286541 0.951056 0
0.236541 0.951056 0
0.25 1 0
0.382169 0.964303 0
0.332168 0.964303 0
0.35 1 0
0.966209 0.0823575 0
1 0.05 0
0.876558 0.0357485 0
0.826558 0.0357485 0
0.85 0 0
0.710547 0.227526 0
0.663415 0.224132 0
0.686826 0.263198 0
0.964263 0.272229 0
1 0.25 0
0.40098 0.934133 0
0.418811 0.96983 0
0.45 1 0
0.326813 0.219104 0
0.290186 0.248584 0
0.336805 0.267084 0
0.243052 0.23639 0
0.253043 0.28437 0
0.224721 0.582616 0
0.220205 0.636726 0
0.252082 0.610769 0
0.92046 0.10812 0
0.954252 0.125762 0
0.66166 0.32475 0
0.662288 0.283458 0
0.639066 0.301096 0
0.949255 0.366653 0
0.949255 0.316653 0
1 0.35 0
0.291542 0.723459 0
0.27993 0.682005 0
0.259178 0.706333 0
0.394055 0.89916 0
0.430698 0.904686 0
0.531524 0.28422 0
0.492115 0.297124 0
0.522791 0.316692 0
0.040646 0.122453 0
0.040646 0.172453 0
0 0.15 0
1 0.15 0
0.151681 0.262718 0
0.192069 0.222774 0
0.137841 0.213317 0
0.558428 0.264284 0
0.600947 0.281797 0
0.597175 0.242291 0
0.508973 0.20957 0
0.551071 0.183459 0
0.505387 0.168251 0
0.118847 0.906605 0
0.088766 0.958276 0
0.3123 0.881198 0
0.329373 0.835836 0
0.290155 0.856751 0
0.18042 0.709353 0
0.223182 0.704287 0
0.204805 0.669945 0
0.114037 0.464054 0
0.157422 0.486991 0
0.15195 0.441504 0
0.279361 0.505346 0
0.248729 0.459236 0
0.225966 0.51055 0
0.423399 0.442555 0
0.448567 0.488847 0
0.892767 0.068106 0
0.65 0 0
0.901255 0.379406 0
0.952 0.412754 0
0.858877 0.146767 0
0.822019 0.189153 0
0.871644 0.19391 0
0.14825 0.528535 0
0.186162 0.505985 0
0.178931 0.775801 0
0.161815 0.746482 0
0.141948 0.778588 0
0.29813 0.591225 0
0.34111 0.580516 0
0.299577 0.545951 0
0.913519 0.288882 0
0.881657 0.240376 0
0.866648 0.2848 0
0.664882 0.143162 0
0.708469 0.158169 0
0.686215 0.112871 0
0.768308 0.293401 0
0.818722 0.278253 0
0.784372 0.251443 0
0.407693 0.254387 0
0.452622 0.232766 0
0.418361 0.215983 0
0.559238 0.352343 0
0.519829 0.365247 0
0.269689 0.146391 0
0.323596 0.167402 0
0.313091 0.113188 0
0.367897 0.0645775 0
0.396163 0.0349765 0
0.220028 0.321352 0
0.17678 0.307097 0
0.190899 0.356272 0
0.584604 0.203855 0
0.581018 0.162535 0
0.250656 0.860137 0
0.267729 0.814776 0
0.359821 0.770477 0
0.31886 0.781193 0
0.348189 0.800674 0
0.124404 0.679582 0
0.141706 0.637726 0
0.104067 0.642297 0
0.216622 0.899385 0
0.203213 0.085617 0
0.162735 0.126214 0
0.218707 0.132775 0
0.0893725 0.199083 0
0.129761 0.159139 0
0.121022 0.819921 0
0.103905 0.790602 0
0.193647 0.813034 0
0.159614 0.852282 0
0.194196 0.85741 0
0.650843 0.185696 0
0.628589 0.140398 0
0.504917 0.076007 0
0.50366 0.114367 0
0.548742 0.103779 0
0.378761 0.595487 0
0.380208 0.550214 0
0.466523 0.368506 0
0.783675 0.0347525 0
0.75 0 0
0.595056 0.120002 0
0.20263 0.384402 0
0.183224 0.431359 0
0.214741 0.417484 0
0.084015 0.29788 0
0.109114 0.342258 0
0.122552 0.29764 0
0.370334 0.82512 0
0.387646 0.864998 0
0.406461 0.829835 0
0.355164 0.351116 0
0.345461 0.389393 0
0.38124 0.369312 0
0.177444 0.641792 0
0.157107 0.604507 0
0.0286115 0.437949 0
0.0286115 0.487949 0
0 0.45 0
0.184917 0.578051 0
0.216794 0.552094 0
0.310754 0.412615 0
0.268135 0.41228 0
0.13984 0.408422 0
0.159382 0.370147 0
0.128108 0.380293 0
0.784378 0.167398 0
0.797145 0.21454 0
0.649424 0.382815 0
0.693196 0.390508 0
0.682209 0.350082 0
0.471401 0.267911 0
0.482069 0.229507 0
0.600319 0.323089 0
0.597356 0.371644 0
0.370215 0.185901 0
0.420304 0.369225 0
0.410601 0.407502 0
0.5 0.65 0
0.293615 0.645334 0
0.325979 0.66246 0
0.342624 0.703635 0
0.356309 0.666965 0
0.24951 0.782974 0
0.289009 0.779588 0
0.810542 0.362514 0
0.76432 0.338993 0
0.772204 0.381296 0
0.70942 0.286852 0
0.705431 0.332443 0
0.729969 0.312184 0
0.831184 0.106754 0
0.88081 0.111511 0
0.700748 0.430301 0
0.733534 0.397568 0
0.850584 0.326758 0
0.229212 0.186988 0
0.407496 0.52144 0
0.369845 0.506468 0
0.413594 0.760165 0
0.405497 0.719256 0
0.381051 0.749049 0
0.444574 0.794979 0
0.383872 0.640216 0
0.400517 0.681391 0
0.355233 0.0967005 0
0.42608 0.078274 0
0.379662 0.102076 0
0.055907 0.589708 0
0.0873405 0.613876 0
0.072862 0.718619 0
0.0918955 0.751177 0
0.105798 0.716711 0
0.234794 0.74574 0
0.213514 0.780928 0
0.143437 0.712141 0
0.72332 0.190623 0
0.744653 0.160332 0
0.788301 0.105758 0
0.748577 0.0986915 0
0.769527 0.134944 0
0.357928 0.894445 0
0.318709 0.915359 0
0.0802555 0.874244 0
0.121571 0.864297 0
0.32234 0.494638 0
0.349629 0.465863 0
0.384335 0.442641 0
0.336831 0.43081 0
0.608343 0.412069 0
0.527752 0.244716 0
0.858468 0.369061 0
0.627123 0.221367 0
0.382188 0.284319 0
0.345561 0.3138 0
0.437163 0.330315 0
0.746731 0.229689 0
0.149179 0.573985 0
0.720027 0.100984 0
0.810234 0.070501 0
0.861213 0.415162 0
0.827831 0.478851 0
0.85 0.5 0
0.082894 0.447232 0
0.0883665 0.492719 0
0.0578625 0.514002 0
0.300642 0.749391 0
0.351723 0.729569 0
0.321394 0.725064 0
0.416449 0.301103 0
0.462668 0.300384 0
0.837044 0.431259 0
</DataArray>
</Points>
<Cells>
<DataArray  type="UInt32"  Name="connectivity"  format="ascii">
1 138 139 
14 137 139 
45 137 138 
137 138 139 
4 141 142 
27 140 142 
65 140 141 
140 141 142 
0 144 145 
23 143 145 
43 143 144 
143 144 145 
4 141 147 
65 141 146 
105 146 147 
141 146 147 
5 149 150 
31 148 150 
47 148 149 
148 149 150 
2 152 153 
32 151 153 
44 151 152 
151 152 153 
2 152 155 
15 154 155 
44 152 154 
152 154 155 
15 154 157 
44 154 156 
101 156 157 
154 156 157 
6 159 160 
43 158 160 
93 158 159 
158 159 160 
15 162 163 
16 161 163 
71 161 162 
161 162 163 
6 159 165 
7 164 165 
93 159 164 
159 164 165 
[...]
<PointData  Vectors="u"> 
<DataArray  type="Float32"  Name="u"  NumberOfComponents="3" format="ascii">
 0.000000e+00 0.000000e+00 0.000000e+00
 0.000000e+00 0.000000e+00 0.000000e+00
 0.000000e+00 0.000000e+00 0.000000e+00
 0.000000e+00 0.000000e+00 0.000000e+00
 0.000000e+00 0.000000e+00 0.000000e+00
 0.000000e+00 0.000000e+00 0.000000e+00
 0.000000e+00 0.000000e+00 0.000000e+00
 0.000000e+00 0.000000e+00 0.000000e+00
 0.000000e+00 0.000000e+00 0.000000e+00
 0.000000e+00 0.000000e+00 0.000000e+00
 0.000000e+00 0.000000e+00 0.000000e+00
 0.000000e+00 0.000000e+00 0.000000e+00
 0.000000e+00 0.000000e+00 0.000000e+00
 0.000000e+00 0.000000e+00 0.000000e+00
 0.000000e+00 0.000000e+00 0.000000e+00
 0.000000e+00 0.000000e+00 0.000000e+00
 0.000000e+00 0.000000e+00 0.000000e+00
 0.000000e+00 0.000000e+00 0.000000e+00
 0.000000e+00 0.000000e+00 0.000000e+00
 0.000000e+00 0.000000e+00 0.000000e+00
 0.000000e+00 0.000000e+00 0.000000e+00
 0.000000e+00 0.000000e+00 0.000000e+00
 0.000000e+00 0.000000e+00 0.000000e+00
 0.000000e+00 0.000000e+00 0.000000e+00
 0.000000e+00 0.000000e+00 0.000000e+00
 0.000000e+00 0.000000e+00 0.000000e+00
 0.000000e+00 0.000000e+00 0.000000e+00
 0.000000e+00 0.000000e+00 0.000000e+00
 0.000000e+00 0.000000e+00 0.000000e+00
 0.000000e+00 0.000000e+00 0.000000e+00
 0.000000e+00 0.000000e+00 0.000000e+00
 0.000000e+00 0.000000e+00 0.000000e+00
 4.034710e-05 1.126359e-01 0.000000e+00
 -3.153895e-05 1.330119e-01 0.000000e+00
 5.094309e-05 1.301465e-01 0.000000e+00
 1.568745e-04 1.062127e-01 0.000000e+00
 -1.137772e-01 6.478830e-03 0.000000e+00
 -1.330440e-01 1.304677e-02 0.000000e+00
 -1.301113e-01 1.373919e-02 0.000000e+00
 -1.054391e-01 7.223163e-03 0.000000e+00
 -6.599500e-02 4.286231e-02 0.000000e+00
 -6.210469e-03 1.331154e-01 0.000000e+00
 -1.283213e-01 2.214022e-02 0.000000e+00
 -2.304943e-03 2.183204e-03 0.000000e+00
 6.518669e-05 5.439730e-02 0.000000e+00
 -7.790421e-02 3.031602e-03 0.000000e+00
 -4.848747e-02 2.120028e-03 0.000000e+00
 2.584768e-04 7.108602e-02 0.000000e+00
 -2.864588e-02 1.039345e-01 0.000000e+00
 -1.459913e-01 4.564850e-02 0.000000e+00
 -1.278462e-01 1.472160e-02 0.000000e+00
 1.137724e-03 1.312614e-01 0.000000e+00
 -3.551392e-02 2.852503e-02 0.000000e+00
 -6.382058e-02 7.632546e-03 0.000000e+00
 -8.727956e-02 1.076682e-02 0.000000e+00
 -3.304490e-04 1.250849e-01 0.000000e+00
 2.794638e-04 1.333104e-01 0.000000e+00
 -4.419539e-02 1.428588e-01 0.000000e+00
 -2.278996e-02 7.406747e-02 0.000000e+00
 -1.049128e-01 9.017107e-03 0.000000e+00
 -1.475504e-01 1.328996e-02 0.000000e+00
 -4.980597e-03 1.174559e-01 0.000000e+00
 2.675952e-03 1.219933e-01 0.000000e+00
 -1.275564e-01 9.496027e-03 0.000000e+00
 -1.340964e-01 1.142100e-02 0.000000e+00
 -1.598821e-01 2.619262e-02 0.000000e+00
 -3.950269e-02 6.299092e-03 0.000000e+00
 -8.738201e-02 1.645777e-02 0.000000e+00
 7.775331e-04 8.550289e-02 0.000000e+00
 1.554082e-04 1.316824e-01 0.000000e+00
 -9.863823e-03 1.735176e-02 0.000000e+00
 3.304798e-04 9.925127e-02 0.000000e+00
 -4.893470e-02 2.494211e-03 0.000000e+00
 -1.116759e-01 9.875939e-02 0.000000e+00
 -8.063070e-02 6.135839e-03 0.000000e+00
 -5.551225e-02 3.361662e-03 0.000000e+00
 -1.142996e-02 8.590648e-02 0.000000e+00
 4.704813e-04 1.301717e-01 0.000000e+00
 -2.607256e-02 1.289084e-01 0.000000e+00
 -9.577572e-03 1.059026e-01 0.000000e+00
 -4.653079e-02 7.283904e-02 0.000000e+00
 -1.321209e-02 4.676968e-02 0.000000e+00
 -1.566752e-01 2.002599e-02 0.000000e+00
 -1.090458e-01 2.153311e-02 0.000000e+00
 -7.837491e-02 2.410255e-02 0.000000e+00
 -8.397560e-03 1.387724e-01 0.000000e+00
 -3.632599e-04 1.322377e-01 0.000000e+00
 -1.315632e-01 1.853721e-02 0.000000e+00
 -1.297045e-01 1.367526e-02 0.000000e+00
 -7.941027e-02 2.832913e-03 0.000000e+00
 -1.167437e-01 5.785474e-03 0.000000e+00
 -5.736538e-02 2.215275e-02 0.000000e+00
 -1.622318e-02 1.013868e-01 0.000000e+00
 -1.672368e-02 7.588177e-03 0.000000e+00
 2.169022e-03 1.123599e-01 0.000000e+00
 2.959863e-03 7.661432e-02 0.000000e+00
 -3.206352e-02 1.344736e-03 0.000000e+00
 -5.941399e-04 1.012265e-01 0.000000e+00
 -3.527186e-03 1.311397e-01 0.000000e+00
 -1.174490e-01 9.270102e-03 0.000000e+00
 5.507577e-04 1.236544e-01 0.000000e+00
 2.218804e-04 9.369211e-02 0.000000e+00
 3.214597e-05 1.330468e-01 0.000000e+00
 -6.677873e-02 1.112034e-01 0.000000e+00
 -4.008396e-02 4.906549e-02 0.000000e+00
 -1.535999e-01 8.300901e-02 0.000000e+00
 -1.183427e-01 6.714223e-03 0.000000e+00
 -1.445441e-01 2.916191e-02 0.000000e+00
 -1.397008e-01 1.391811e-02 0.000000e+00
 -1.052791e-01 1.639725e-02 0.000000e+00
 -1.097012e-01 5.627861e-02 0.000000e+00
 -1.139065e-01 1.616382e-02 0.000000e+00
 -6.003815e-03 5.387388e-02 0.000000e+00
 -9.017988e-02 3.331688e-03 0.000000e+00
 -1.568288e-02 1.209902e-01 0.000000e+00
 -7.009207e-02 3.530340e-03 0.000000e+00
 -1.058609e-02 1.288514e-01 0.000000e+00
 -2.676527e-02 8.747798e-02 0.000000e+00
 2.321447e-04 7.372845e-02 0.000000e+00
 -8.967485e-02 3.941901e-03 0.000000e+00
 2.319153e-03 6.657613e-02 0.000000e+00
 -2.531246e-03 6.093078e-02 0.000000e+00
 -1.555986e-03 6.824052e-02 0.000000e+00
 1.602121e-03 1.316492e-01 0.000000e+00
 -8.495477e-04 1.349683e-01 0.000000e+00
 -1.444505e-01 1.960451e-02 0.000000e+00
 -4.381888e-04 6.553987e-02 0.000000e+00
 -1.279575e-03 1.331926e-01 0.000000e+00
 -4.108635e-02 1.811885e-03 0.000000e+00
 1.185990e-03 1.269454e-01 0.000000e+00
 -9.228303e-02 1.295240e-01 0.000000e+00
 -8.161804e-02 7.337926e-02 0.000000e+00
 -7.097327e-02 2.890890e-03 0.000000e+00
 -1.055447e-01 3.246965e-02 0.000000e+00
 -1.206097e-01 1.476539e-02 0.000000e+00
 -5.301379e-02 1.304616e-03 0.000000e+00
 -1.165997e-01 2.889069e-02 0.000000e+00
 -3.672376e-02 8.835611e-04 0.000000e+00
 -3.935133e-02 1.476210e-03 0.000000e+00
 0.000000e+00 0.000000e+00 0.000000e+00
 -9.489185e-02 7.537595e-03 0.000000e+00
 -1.139823e-01 2.662547e-02 0.000000e+00
 0.000000e+00 0.000000e+00 0.000000e+00
 -7.799721e-04 8.519179e-04 0.000000e+00
 5.541494e-04 -5.451581e-04 0.000000e+00
 0.000000e+00 0.000000e+00 0.000000e+00
 -1.651576e-01 5.111260e-02 0.000000e+00
 -1.255647e-01 7.304252e-02 0.000000e+00
 1.315223e-04 3.245218e-02 0.000000e+00
 7.535307e-05 3.257913e-02 0.000000e+00
 0.000000e+00 0.000000e+00 0.000000e+00
 5.383494e-05 8.832699e-02 0.000000e+00
 1.603956e-05 2.441846e-02 0.000000e+00
 1.796802e-05 6.179580e-02 0.000000e+00
 6.844533e-05 2.459673e-02 0.000000e+00
 0.000000e+00 0.000000e+00 0.000000e+00
 1.397458e-04 7.554481e-02 0.000000e+00
 1.545354e-04 4.670592e-02 0.000000e+00
 -8.319716e-03 5.467570e-03 0.000000e+00
 -4.667982e-03 1.880618e-03 0.000000e+00
 -7.158506e-04 6.486840e-04 0.000000e+00
 1.816435e-04 5.171937e-02 0.000000e+00
 1.808518e-04 5.145002e-02 0.000000e+00
 0.000000e+00 0.000000e+00 0.000000e+00
 -9.516343e-03 1.875795e-03 0.000000e+00
 0.000000e+00 0.000000e+00 0.000000e+00
 0.000000e+00 0.000000e+00 0.000000e+00
 -3.753927e-02 3.154424e-03 0.000000e+00
 -1.341792e-02 2.012478e-04 0.000000e+00
 -2.125301e-02 1.283476e-03 0.000000e+00
 2.988906e-04 8.739124e-02 0.000000e+00
 1.595625e-04 3.519633e-02 0.000000e+00
 1.562670e-04 3.543702e-02 0.000000e+00
 0.000000e+00 0.000000e+00 0.000000e+00
 -1.519114e-02 1.365060e-02 0.000000e+00
 -6.369938e-03 8.270014e-03 0.000000e+00
 -1.738806e-02 1.903614e-03 0.000000e+00
 0.000000e+00 0.000000e+00 0.000000e+00
 -1.483155e-02 1.840942e-04 0.000000e+00
 0.000000e+00 0.000000e+00 0.000000e+00
 -2.784287e-02 8.081022e-04 0.000000e+00
 -2.585975e-02 6.685766e-04 0.000000e+00
 0.000000e+00 0.000000e+00 0.000000e+00
 -7.612902e-02 8.945571e-03 0.000000e+00
 -6.188455e-02 5.011012e-03 0.000000e+00
 -7.501497e-02 1.128600e-02 0.000000e+00
 -2.273932e-02 6.568058e-04 0.000000e+00
 -2.084716e-02 5.066748e-04 0.000000e+00
 0.000000e+00 0.000000e+00 0.000000e+00
 -6.514498e-02 4.250057e-03 0.000000e+00
 -4.062145e-02 1.673195e-03 0.000000e+00
 -7.003017e-02 2.949921e-03 0.000000e+00
 -4.324715e-02 1.171120e-03 0.000000e+00
 -2.179247e-02 5.729967e-04 0.000000e+00
 -5.778841e-04 8.502168e-02 0.000000e+00
 9.186119e-05 3.167057e-02 0.000000e+00
 1.065442e-04 5.384116e-02 0.000000e+00
 -5.037884e-05 3.139141e-02 0.000000e+00
 0.000000e+00 0.000000e+00 0.000000e+00
 -6.217807e-02 7.106551e-02 0.000000e+00
 -7.342382e-02 5.601194e-02 0.000000e+00
 -5.750533e-02 5.744582e-02 0.000000e+00
 -5.833873e-04 3.834434e-02 0.000000e+00
 -2.319089e-02 5.731230e-02 0.000000e+00
 0.000000e+00 0.000000e+00 0.000000e+00
 -1.265105e-03 8.590152e-02 0.000000e+00
 1.968586e-03 2.935738e-02 0.000000e+00
 3.002894e-03 7.117121e-02 0.000000e+00
 1.177356e-03 2.767831e-02 0.000000e+00
 1.804496e-03 3.178213e-02 0.000000e+00
 8.182893e-04 2.940990e-02 0.000000e+00
 0.000000e+00 0.000000e+00 0.000000e+00
 1.321125e-04 1.338450e-01 0.000000e+00
 1.512916e-04 1.276271e-01 0.000000e+00
 1.891284e-06 1.322462e-01 0.000000e+00
 -7.299410e-02 2.431097e-03 0.000000e+00
 -2.275635e-02 3.872118e-04 0.000000e+00
 -8.067797e-02 4.674462e-03 0.000000e+00
 -1.924514e-02 1.128340e-03 0.000000e+00
 -5.391159e-02 3.196322e-03 0.000000e+00
 -7.638476e-02 4.833737e-03 0.000000e+00
 -3.246446e-02 8.464823e-04 0.000000e+00
 -4.414346e-02 1.672618e-03 0.000000e+00
 -1.057595e-01 4.553802e-03 0.000000e+00
 -4.176383e-02 8.100334e-04 0.000000e+00
 -6.345133e-02 1.667014e-03 0.000000e+00
 -7.068963e-02 3.196341e-03 0.000000e+00
 -3.226950e-02 7.948020e-04 0.000000e+00
 0.000000e+00 0.000000e+00 0.000000e+00
 -4.457700e-02 9.637481e-04 0.000000e+00
 0.000000e+00 0.000000e+00 0.000000e+00
 -4.339215e-04 3.291739e-02 0.000000e+00
 -2.131415e-04 3.434262e-02 0.000000e+00
 0.000000e+00 0.000000e+00 0.000000e+00
 -4.659697e-03 9.328701e-02 0.000000e+00
 -3.300669e-03 9.832343e-02 0.000000e+00
 -7.285162e-03 1.124930e-01 0.000000e+00
 2.547459e-04 4.127443e-02 0.000000e+00
 4.840124e-04 4.034603e-02 0.000000e+00
 0.000000e+00 0.000000e+00 0.000000e+00
 -8.764129e-03 7.091619e-02 0.000000e+00
 -1.351996e-03 3.053710e-02 0.000000e+00
 -2.942779e-03 5.125444e-02 0.000000e+00
 -1.302396e-01 1.230482e-02 0.000000e+00
 -1.310611e-01 1.355967e-02 0.000000e+00
 -1.326090e-01 1.148000e-02 0.000000e+00
 -6.420173e-02 2.118869e-03 0.000000e+00
 -5.939632e-02 1.667505e-03 0.000000e+00
 0.000000e+00 0.000000e+00 0.000000e+00
 -1.578755e-03 2.614691e-02 0.000000e+00
 0.000000e+00 0.000000e+00 0.000000e+00
 -3.929089e-03 2.313449e-02 0.000000e+00
 -3.511295e-03 3.059165e-02 0.000000e+00
 0.000000e+00 0.000000e+00 0.000000e+00
 2.327941e-04 1.301107e-01 0.000000e+00
 1.473737e-04 1.307934e-01 0.000000e+00
 -1.831380e-05 1.302143e-01 0.000000e+00
 2.791493e-04 1.167066e-01 0.000000e+00
 2.545441e-04 1.293641e-01 0.000000e+00
 1.367054e-04 1.270559e-01 0.000000e+00
 -9.870081e-02 4.893727e-03 0.000000e+00
 -6.396488e-02 2.847553e-03 0.000000e+00
 -3.944577e-02 8.314988e-04 0.000000e+00
 -3.731063e-02 7.712897e-04 0.000000e+00
 0.000000e+00 0.000000e+00 0.000000e+00
 -1.223697e-01 1.842863e-02 0.000000e+00
 -1.188643e-01 1.959375e-02 0.000000e+00
 -1.305152e-01 2.038912e-02 0.000000e+00
 -1.299742e-01 1.400687e-02 0.000000e+00
 -1.301392e-01 1.429932e-02 0.000000e+00
 4.394079e-04 1.054351e-01 0.000000e+00
 2.001389e-04 9.090051e-02 0.000000e+00
 9.313472e-05 5.633621e-02 0.000000e+00
 -6.655508e-02 2.168832e-02 0.000000e+00
 -6.026924e-02 3.075518e-02 0.000000e+00
 -7.352884e-02 3.236816e-02 0.000000e+00
 -4.976228e-02 3.432058e-02 0.000000e+00
 -5.186766e-02 4.426972e-02 0.000000e+00
 -1.714982e-02 1.279906e-01 0.000000e+00
 -8.968082e-03 1.314856e-01 0.000000e+00
 -1.402385e-02 1.326092e-01 0.000000e+00
 -1.137281e-01 6.276224e-03 0.000000e+00
 -1.248797e-01 8.119587e-03 0.000000e+00
 -1.509019e-01 1.983700e-02 0.000000e+00
 -1.371781e-01 2.148011e-02 0.000000e+00
 -1.442197e-01 2.241190e-02 0.000000e+00
 -1.247726e-01 9.586193e-03 0.000000e+00
 -1.312475e-01 1.262803e-02 0.000000e+00
 -1.270635e-01 1.126167e-02 0.000000e+00
 -5.097660e-04 1.336048e-01 0.000000e+00
 -3.756645e-03 1.346143e-01 0.000000e+00
 -2.573069e-03 1.329794e-01 0.000000e+00
 7.423550e-04 1.099404e-01 0.000000e+00
 4.661562e-04 7.858590e-02 0.000000e+00
 -1.313591e-01 3.018944e-02 0.000000e+00
 -1.309838e-01 3.630852e-02 0.000000e+00
 -1.472199e-01 3.587906e-02 0.000000e+00
 -2.448997e-03 5.379258e-03 0.000000e+00
 -2.889928e-03 1.176968e-02 0.000000e+00
 0.000000e+00 0.000000e+00 0.000000e+00
 -1.325319e-01 1.021273e-02 0.000000e+00
 -2.660375e-02 5.366513e-02 0.000000e+00
 -3.839968e-02 3.914820e-02 0.000000e+00
 -2.465364e-02 4.099865e-02 0.000000e+00
 -1.248490e-01 2.605393e-02 0.000000e+00
 -1.358934e-01 2.480362e-02 0.000000e+00
 -1.194840e-01 2.253949e-02 0.000000e+00
 -9.811272e-02 1.947510e-02 0.000000e+00
 -9.761925e-02 1.617696e-02 0.000000e+00
 -8.807160e-02 1.345764e-02 0.000000e+00
 2.715667e-04 1.232728e-01 0.000000e+00
 1.316025e-04 1.039791e-01 0.000000e+00
 8.104250e-04 1.304458e-01 0.000000e+00
 1.278726e-03 1.301103e-01 0.000000e+00
 8.028516e-04 1.306131e-01 0.000000e+00
 -2.369379e-03 1.330128e-01 0.000000e+00
 -3.101456e-03 1.325600e-01 0.000000e+00
 -5.300087e-03 1.322021e-01 0.000000e+00
 -1.074313e-02 9.637166e-02 0.000000e+00
 -1.793666e-02 1.088516e-01 0.000000e+00
 -1.978386e-02 9.845046e-02 0.000000e+00
 -4.473043e-02 1.237302e-01 0.000000e+00
 -4.518167e-02 1.038442e-01 0.000000e+00
 -3.002622e-02 1.163428e-01 0.000000e+00
 -1.279389e-01 1.093406e-01 0.000000e+00
 -8.065392e-02 9.324683e-02 0.000000e+00
 -7.873301e-02 2.784175e-03 0.000000e+00
 0.000000e+00 0.000000e+00 0.000000e+00
 -1.242276e-01 8.009162e-03 0.000000e+00
 -9.762359e-02 5.699096e-03 0.000000e+00
 -1.229248e-01 9.134586e-03 0.000000e+00
 -1.247230e-01 1.289795e-02 0.000000e+00
 -1.279143e-01 1.233285e-02 0.000000e+00
 -1.291212e-02 1.155036e-01 0.000000e+00
 -2.208697e-02 1.136837e-01 0.000000e+00
 -4.537943e-04 1.336893e-01 0.000000e+00
 -8.850198e-04 1.328148e-01 0.000000e+00
 -1.525754e-04 1.303529e-01 0.000000e+00
 -1.987527e-02 1.390315e-01 0.000000e+00
 -2.225951e-02 1.426048e-01 0.000000e+00
 -3.483489e-02 1.365776e-01 0.000000e+00
 -1.316931e-01 1.334892e-02 0.000000e+00
 -1.289760e-01 1.389600e-02 0.000000e+00
 -1.324817e-01 1.392547e-02 0.000000e+00
 -1.022277e-01 1.147140e-02 0.000000e+00
 -1.108355e-01 1.269704e-02 0.000000e+00
 -9.356509e-02 7.715054e-03 0.000000e+00
 -1.370415e-01 1.658629e-02 0.000000e+00
 -1.327219e-01 1.524375e-02 0.000000e+00
 -1.287277e-01 1.654808e-02 0.000000e+00
 -9.041457e-02 2.815967e-02 0.000000e+00
 -9.480008e-02 2.313476e-02 0.000000e+00
 -8.397577e-02 1.960334e-02 0.000000e+00
 -1.645490e-01 3.078382e-02 0.000000e+00
 -1.670298e-01 4.200681e-02 0.000000e+00
 -5.282600e-02 1.386131e-02 0.000000e+00
 -6.295991e-02 1.329994e-02 0.000000e+00
 -5.268916e-02 6.640232e-03 0.000000e+00
 -3.654000e-02 1.518921e-03 0.000000e+00
 -1.824990e-02 2.468255e-04 0.000000e+00
 -4.274451e-02 5.963375e-02 0.000000e+00
 -3.152548e-02 6.262463e-02 0.000000e+00
 -3.376904e-02 7.400306e-02 0.000000e+00
 -1.066055e-01 1.887423e-02 0.000000e+00
 -9.669390e-02 1.381947e-02 0.000000e+00
 4.616482e-04 1.306162e-01 0.000000e+00
 5.259104e-04 1.308742e-01 0.000000e+00
 2.348211e-03 1.255960e-01 0.000000e+00
 1.419251e-03 1.315554e-01 0.000000e+00
 1.832686e-03 1.280187e-01 0.000000e+00
 -1.878743e-03 1.232691e-01 0.000000e+00
 -4.543988e-03 1.261933e-01 0.000000e+00
 -2.149371e-03 1.118849e-01 0.000000e+00
 2.858473e-04 1.319971e-01 0.000000e+00
 -2.877560e-02 7.632538e-03 0.000000e+00
 -2.845572e-02 1.772256e-02 0.000000e+00
 -4.191426e-02 1.571566e-02 0.000000e+00
 -1.227940e-02 3.178785e-02 0.000000e+00
 -2.248088e-02 2.622647e-02 0.000000e+00
 2.816298e-04 1.241126e-01 0.000000e+00
 2.322220e-04 1.151201e-01 0.000000e+00
 -6.796128e-06 1.334437e-01 0.000000e+00
 2.760942e-04 1.332263e-01 0.000000e+00
 2.588599e-04 1.333881e-01 0.000000e+00
 -1.098191e-01 1.644681e-02 0.000000e+00
 -9.701133e-02 1.121026e-02 0.000000e+00
 -5.285798e-02 2.981107e-03 0.000000e+00
 -7.274371e-02 6.649174e-03 0.000000e+00
 -7.307212e-02 6.191601e-03 0.000000e+00
 -1.224329e-02 1.294447e-01 0.000000e+00
 -3.412943e-02 1.361193e-01 0.000000e+00
 -1.570734e-01 6.198038e-02 0.000000e+00
 -3.433138e-02 7.523919e-04 0.000000e+00
 0.000000e+00 0.000000e+00 0.000000e+00
 -8.578969e-02 8.551538e-03 0.000000e+00
 -3.631352e-02 8.053135e-02 0.000000e+00
 -2.821971e-02 9.567855e-02 0.000000e+00
 -3.813093e-02 8.960413e-02 0.000000e+00
 -9.267584e-03 5.226120e-02 0.000000e+00
 -1.361514e-02 7.004541e-02 0.000000e+00
 -1.795286e-02 6.191370e-02 0.000000e+00
 1.657003e-03 1.216127e-01 0.000000e+00
 1.130078e-03 1.136030e-01 0.000000e+00
 1.395750e-03 1.006694e-01 0.000000e+00
 -9.727358e-02 6.560995e-02 0.000000e+00
 -9.659777e-02 8.575791e-02 0.000000e+00
 -1.148692e-01 7.639730e-02 0.000000e+00
 -6.382908e-03 1.305871e-01 0.000000e+00
 -7.858791e-03 1.262069e-01 0.000000e+00
 -6.497733e-04 2.816959e-02 0.000000e+00
 -5.363045e-04 3.076533e-02 0.000000e+00
 0.000000e+00 0.000000e+00 0.000000e+00
 -1.326351e-02 1.255050e-01 0.000000e+00
 -2.126743e-02 1.236212e-01 0.000000e+00
 -7.740574e-02 9.338033e-02 0.000000e+00
 -5.783666e-02 8.780026e-02 0.000000e+00
 -1.843451e-02 9.005774e-02 0.000000e+00
 -2.479267e-02 8.077321e-02 0.000000e+00
 -1.685039e-02 8.226747e-02 0.000000e+00
 -1.198564e-01 1.204106e-02 0.000000e+00
 -1.249020e-01 1.499600e-02 0.000000e+00
 -1.517439e-01 1.393534e-02 0.000000e+00
 -1.415108e-01 1.038438e-02 0.000000e+00
 -1.527686e-01 1.619912e-02 0.000000e+00
 -1.117816e-01 3.079044e-02 0.000000e+00
 -9.943478e-02 2.263237e-02 0.000000e+00
 -1.537741e-01 2.507509e-02 0.000000e+00
 -1.626231e-01 2.157596e-02 0.000000e+00
 -7.139763e-02 1.442616e-02 0.000000e+00
 -1.366758e-01 7.380827e-02 0.000000e+00
 -1.347565e-01 9.628255e-02 0.000000e+00
 0.000000e+00 0.000000e+00 0.000000e+00
 -7.726504e-03 1.373114e-01 0.000000e+00
 -3.428640e-03 1.369516e-01 0.000000e+00
 1.129590e-03 1.320334e-01 0.000000e+00
 -4.857378e-04 1.310225e-01 0.000000e+00
 -5.672404e-06 1.313972e-01 0.000000e+00
 6.797025e-04 1.318041e-01 0.000000e+00
 -1.379580e-01 1.019184e-02 0.000000e+00
 -1.441802e-01 1.375286e-02 0.000000e+00
 -1.360368e-01 9.108556e-03 0.000000e+00
 -1.373920e-01 1.922716e-02 0.000000e+00
 -1.489082e-01 1.676028e-02 0.000000e+00
 -1.431201e-01 1.721959e-02 0.000000e+00
 -1.053376e-01 5.778205e-03 0.000000e+00
 -1.123291e-01 6.151665e-03 0.000000e+00
 -1.039846e-01 4.692121e-03 0.000000e+00
 -1.316787e-01 8.146782e-03 0.000000e+00
 -1.370389e-01 1.228877e-02 0.000000e+00
 -4.738890e-02 2.584061e-02 0.000000e+00
 -5.112874e-02 1.241791e-01 0.000000e+00
 -6.527842e-02 1.397522e-01 0.000000e+00
 2.430180e-03 9.351212e-02 0.000000e+00
 3.215459e-03 1.001074e-01 0.000000e+00
 2.831421e-03 1.169982e-01 0.000000e+00
 1.206806e-03 6.088110e-02 0.000000e+00
 -9.664731e-04 1.201112e-01 0.000000e+00
 3.150740e-03 1.047907e-01 0.000000e+00
 -5.159824e-02 4.028120e-03 0.000000e+00
 -4.830804e-02 2.483544e-03 0.000000e+00
 -5.569208e-02 4.350428e-03 0.000000e+00
 -9.106543e-04 6.727956e-02 0.000000e+00
 -2.089336e-03 9.894485e-02 0.000000e+00
 -7.068230e-06 8.901921e-02 0.000000e+00
 5.599818e-05 1.064259e-01 0.000000e+00
 -4.918996e-04 1.154229e-01 0.000000e+00
 -1.083127e-03 1.321205e-01 0.000000e+00
 -3.683977e-04 1.325916e-01 0.000000e+00
 -1.469487e-03 1.296499e-01 0.000000e+00
 -1.174591e-01 1.555703e-02 0.000000e+00
 -1.150146e-01 1.224628e-02 0.000000e+00
 -1.007380e-01 6.016921e-03 0.000000e+00
 -9.245592e-02 5.677802e-03 0.000000e+00
 -1.115667e-01 9.193562e-03 0.000000e+00
 8.612734e-04 1.254339e-01 0.000000e+00
 5.671839e-04 1.302021e-01 0.000000e+00
 2.955463e-04 9.655610e-02 0.000000e+00
 3.325816e-04 1.244637e-01 0.000000e+00
 -6.084833e-02 1.315212e-01 0.000000e+00
 -8.358574e-02 1.269531e-01 0.000000e+00
 -1.104035e-01 1.185647e-01 0.000000e+00
 -8.840779e-02 1.076257e-01 0.000000e+00
 -1.400594e-01 1.266866e-02 0.000000e+00
 -1.125934e-01 2.463123e-02 0.000000e+00
 -1.317800e-01 8.876355e-03 0.000000e+00
 -1.154602e-01 2.015834e-02 0.000000e+00
 -9.129355e-02 3.721238e-02 0.000000e+00
 -8.486064e-02 4.817724e-02 0.000000e+00