<?xml version="1.0"?>
<VTKFile type="UnstructuredGrid"  version="0.1"  >
<UnstructuredGrid>
<Piece  NumberOfPoints="505" NumberOfCells="928">
<Points>
<DataArray  type="Float32"  NumberOfComponents="3"  format="ascii">
0 0 0
1 0 0
0 1 0
1 0.5 0
0.5 0.5 0
0.5 1 0
0.1 0 0
0.2 0 0
0.3 0 0
0.4 0 0
0.5 0 0
0.6 0 0
0.7 0 0
0.8 0 0
0.9 0 0
0 0.9 0
0 0.8 0
0 0.7 0
0 0.6 0
0 0.5 0
0 0.4 0
0 0.3 0
0 0.2 0
0 0.1 0
0.9 0.5 0
0.8 0.5 0
0.7 0.5 0
0.6 0.5 0
0.5 0.6 0
0.5 0.7 0
0.5 0.8 0
0.5 0.9 0
0.1 1 0
0.2 1 0
0.3 1 0
0.4 1 0
1 0.1 0
1 0.2 0
1 0.3 0
1 0.4 0
0.300178 0.296564 0
0.247566 0.664879 0
0.639694 0.259804 0
0.06564 0.06472 0
0.04439 0.954144 0
0.932418 0.064715 0
0.951013 0.456419 0
0.437622 0.939659 0
0.195334 0.464441 0
0.483382 0.329596 0
0.834786 0.236295 0
0.307228 0.81139 0
0.178229 0.173372 0
0.366998 0.134199 0
0.547485 0.14214 0
0.124832 0.74927 0
0.160163 0.896658 0
0.342556 0.535243 0
0.147651 0.342018 0
0.729803 0.127878 0
0.725981 0.357775 0
0.121369 0.600441 0
0.372954 0.70814 0
0.908503 0.151525 0
0.89851 0.333305 0
0.556275 0.400898 0
0.259184 0.092178 0
0.46329 0.194362 0
0.423773 0.869712 0
0.22823 0.818162 0
0.081292 0.144905 0
0.082979 0.831935 0
0.549999 0.065419 0
0.371537 0.407588 0
0.642628 0.097865 0
0.459835 0.086595 0
0.108565 0.418567 0
0.273082 0.902112 0
0.256598 0.556659 0
0.11951 0.509541 0
0.234147 0.370527 0
0.097453 0.253261 0
0.638438 0.342389 0
0.554656 0.224779 0
0.373432 0.237603 0
0.339663 0.62579 0
0.27079 0.747786 0
0.733958 0.266592 0
0.928527 0.244458 0
0.853116 0.071497 0
0.818426 0.404817 0
0.280194 0.200604 0
0.417859 0.565185 0
0.147241 0.079056 0
0.389149 0.789957 0
0.42808 0.654642 0
0.343469 0.059202 0
0.086765 0.684153 0
0.162043 0.675011 0
0.809252 0.14201 0
0.364337 0.928607 0
0.077532 0.916553 0
0.159064 0.807906 0
0.302124 0.454032 0
0.205909 0.272176 0
0.449664 0.407415 0
0.66041 0.423241 0
0.562201 0.303789 0
0.802658 0.320211 0
0.614551 0.182931 0
0.390944 0.331035 0
0.687136 0.18846 0
0.070577 0.342498 0
0.741087 0.437361 0
0.176989 0.547528 0
0.710251 0.07409 0
0.192845 0.608574 0
0.171114 0.398277 0
0.058959 0.753084 0
0.904 0.425508 0
0.438039 0.730373 0
0.057223 0.475897 0
0.058502 0.552106 0
0.330493 0.750997 0
0.312295 0.699131 0
0.684882 0.307111 0
0.053312 0.627311 0
0.198798 0.743695 0
0.392326 0.069953 0
0.351519 0.860283 0
0.397134 0.477694 0
0.319385 0.371198 0
0.767351 0.069505 0
0.441954 0.271171 0
0.759504 0.192785 0
0.855661 0.457701 0
0.500847 0.264652 0
0.916209 0.0323575 0
0.966209 0.0323575 0
0.95 0 0
0.578137 0.450449 0
0.528137 0.450449 0
0.55 0.5 0
0.03282 0.08236 0
0.03282 0.03236 0
0 0.05 0
0.502969 0.404157 0
0.474832 0.453708 0
0.468811 0.91983 0
0.468811 0.96983 0
0.5 0.95 0
0.072195 0.977072 0
0.022195 0.977072 0
0.05 1 0
0.022195 0.927072 0
0 0.95 0
0.060961 0.935348 0
0.038766 0.908276 0
0.106441 0.071888 0
0.123621 0.039528 0
0.08282 0.03236 0
0.0414895 0.815967 0
0.0414895 0.865968 0
0 0.85 0
0.173621 0.039528 0
0.15 0 0
0.05 0 0
0.301327 0.07569 0
0.321735 0.029601 0
0.279592 0.046089 0
0.070969 0.792509 0
0.0294795 0.776542 0
0.0294795 0.726542 0
0 0.75 0
0.114267 0.111981 0
0.073466 0.104813 0
0.229592 0.046089 0
0.25 0 0
0.371735 0.029601 0
0.35 0 0
0.479917 0.0432975 0
0.429918 0.0432975 0
0.45 0 0
0.461562 0.140479 0
0.413416 0.110397 0
0.415144 0.16428 0
0.574999 0.0327095 0
0.525 0.0327095 0
0.55 0 0
0.596313 0.081642 0
0.621314 0.0489325 0
0.927507 0.440964 0
0.902 0.462754 0
0.925507 0.47821 0
0.0700385 0.655732 0
0.026656 0.663655 0
0.0433825 0.692076 0
0.026656 0.613655 0
0 0.65 0
0.276766 0.370862 0
0.309781 0.333881 0
0.267162 0.333545 0
0.458929 0.582593 0
0.458929 0.532593 0
0.5 0.55 0
0.422969 0.609913 0
0.46404 0.627321 0
0.43306 0.692508 0
0.46902 0.715186 0
0.46404 0.677321 0
0.46902 0.765186 0
0.5 0.75 0
0.180082 0.948329 0
0.130082 0.948329 0
0.15 1 0
0.87983 0.441605 0
0.87783 0.478851 0
0.975507 0.42821 0
0.975507 0.47821 0
1 0.45 0
0.676439 0.0859775 0
0.705125 0.037045 0
0.671314 0.0489325 0
0.779756 0.421089 0
0.770544 0.46868 0
0.809213 0.452408 0
0.738801 0.0717975 0
0.733675 0.0347525 0
0.95 0.5 0
0.720544 0.46868 0
0.75 0.5 0
0.029251 0.526053 0
0.029251 0.576053 0
0 0.55 0
0.089006 0.530824 0
0.0899355 0.576273 0
0.12044 0.554991 0
0.461886 0.884856 0
0.461886 0.834856 0
0.5 0.85 0
0.089571 0.380533 0
0.0352885 0.371249 0
0.0542825 0.409284 0
0.918515 0.197991 0
0.964263 0.222229 0
0.954252 0.175762 0
0.630205 0.46162 0
0.680205 0.46162 0
0.65 0.5 0
0.0352885 0.321249 0
0 0.35 0
0.0487265 0.226631 0
0.0487265 0.276631 0
0 0.25 0
0.286541 0.951056 0
0.236541 0.951056 0
0.25 1 0
0.382169 0.964303 0
0.332168 0.964303 0
0.35 1 0
0.966209 0.0823575 0
1 0.05 0
0.876558 0.0357485 0
0.826558 0.0357485 0
0.85 0 0
0.710547 0.227526 0
0.663415 0.224132 0
0.686826 0.263198 0
0.964263 0.272229 0
1 0.25 0
0.40098 0.934133 0
0.418811 0.96983 0
0.45 1 0
0.326813 0.219104 0
0.290186 0.248584 0
0.336805 0.267084 0
0.243052 0.23639 0
0.253043 0.28437 0
0.224721 0.582616 0
0.220205 0.636726 0
0.252082 0.610769 0
0.92046 0.10812 0
0.954252 0.125762 0
0.66166 0.32475 0
0.662288 0.283458 0
0.639066 0.301096 0
0.949255 0.366653 0
0.949255 0.316653 0
1 0.35 0
0.291542 0.723459 0
0.27993 0.682005 0
0.259178 0.706333 0
0.394055 0.89916 0
0.430698 0.904686 0
0.531524 0.28422 0
0.492115 0.297124 0
0.522791 0.316692 0
0.040646 0.122453 0
0.040646 0.172453 0
0 0.15 0
1 0.15 0
0.151681 0.262718 0
0.192069 0.222774 0
0.137841 0.213317 0
0.558428 0.264284 0
0.600947 0.281797 0
0.597175 0.242291 0
0.508973 0.20957 0
0.551071 0.183459 0
0.505387 0.168251 0
0.118847 0.906605 0
0.088766 0.958276 0
0.3123 0.881198 0
0.329373 0.835836 0
0.290155 0.856751 0
0.18042 0.709353 0
0.223182 0.704287 0
0.204805 0.669945 0
0.114037 0.464054 0
0.157422 0.486991 0
0.15195 0.441504 0
0.279361 0.505346 0
0.248729 0.459236 0
0.225966 0.51055 0
0.423399 0.442555 0
0.448567 0.488847 0
0.892767 0.068106 0
0.65 0 0
0.901255 0.379406 0
0.952 0.412754 0
0.858877 0.146767 0
0.822019 0.189153 0
0.871644 0.19391 0
0.14825 0.528535 0
0.186162 0.505985 0
0.178931 0.775801 0
0.161815 0.746482 0
0.141948 0.778588 0
0.29813 0.591225 0
0.34111 0.580516 0
0.299577 0.545951 0
0.913519 0.288882 0
0.881657 0.240376 0
0.866648 0.2848 0
0.664882 0.143162 0
0.708469 0.158169 0
0.686215 0.112871 0
0.768308 0.293401 0
0.818722 0.278253 0
0.784372 0.251443 0
0.407693 0.254387 0
0.452622 0.232766 0
0.418361 0.215983 0
0.559238 0.352343 0
0.519829 0.365247 0
0.269689 0.146391 0
0.323596 0.167402 0
0.313091 0.113188 0
0.367897 0.0645775 0
0.396163 0.0349765 0
0.220028 0.321352 0
0.17678 0.307097 0
0.190899 0.356272 0
0.584604 0.203855 0
0.581018 0.162535 0
0.250656 0.860137 0
0.267729 0.814776 0
0.359821 0.770477 0
0.31886 0.781193 0
0.348189 0.800674 0
0.124404 0.679582 0
0.141706 0.637726 0
0.104067 0.642297 0
0.216622 0.899385 0
0.203213 0.085617 0
0.162735 0.126214 0
0.218707 0.132775 0
0.0893725 0.199083 0
0.129761 0.159139 0
0.121022 0.819921 0
0.103905 0.790602 0
0.193647 0.813034 0
0.159614 0.852282 0
0.194196 0.85741 0
0.650843 0.185696 0
0.628589 0.140398 0
0.504917 0.076007 0
0.50366 0.114367 0
0.548742 0.103779 0
0.378761 0.595487 0
0.380208 0.550214 0
0.466523 0.368506 0
0.783675 0.0347525 0
0.75 0 0
0.595056 0.120002 0
0.20263 0.384402 0
0.183224 0.431359 0
0.214741 0.417484 0
0.084015 0.29788 0
0.109114 0.342258 0
0.122552 0.29764 0
0.370334 0.82512 0
0.387646 0.864998 0
0.406461 0.829835 0
0.355164 0.351116 0
0.345461 0.389393 0
0.38124 0.369312 0
0.177444 0.641792 0
0.157107 0.604507 0
0.0286115 0.437949 0
0.0286115 0.487949 0
0 0.45 0
0.184917 0.578051 0
0.216794 0.552094 0
0.310754 0.412615 0
0.268135 0.41228 0
0.13984 0.408422 0
0.159382 0.370147 0
0.128108 0.380293 0
0.784378 0.167398 0
0.797145 0.21454 0
0.649424 0.382815 0
0.693196 0.390508 0
0.682209 0.350082 0
0.471401 0.267911 0
0.482069 0.229507 0
0.600319 0.323089 0
0.597356 0.371644 0
0.370215 0.185901 0
0.420304 0.369225 0
0.410601 0.407502 0
0.5 0.65 0
0.293615 0.645334 0
0.325979 0.66246 0
0.342624 0.703635 0
0.356309 0.666965 0
0.24951 0.782974 0
0.289009 0.779588 0
0.810542 0.362514 0
0.76432 0.338993 0
0.772204 0.381296 0
0.70942 0.286852 0
0.705431 0.332443 0
0.729969 0.312184 0
0.831184 0.106754 0
0.88081 0.111511 0
0.700748 0.430301 0
0.733534 0.397568 0
0.850584 0.326758 0
0.229212 0.186988 0
0.407496 0.52144 0
0.369845 0.506468 0
0.413594 0.760165 0
0.405497 0.719256 0
0.381051 0.749049 0
0.444574 0.794979 0
0.383872 0.640216 0
0.400517 0.681391 0
0.355233 0.0967005 0
0.42608 0.078274 0
0.379662 0.102076 0
0.055907 0.589708 0
0.0873405 0.613876 0
0.072862 0.718619 0
0.0918955 0.751177 0
0.105798 0.716711 0
0.234794 0.74574 0
0.213514 0.780928 0
0.143437 0.712141 0
0.72332 0.190623 0
0.744653 0.160332 0
0.788301 0.105758 0
0.748577 0.0986915 0
0.769527 0.134944 0
0.357928 0.894445 0
0.318709 0.915359 0
0.0802555 0.874244 0
0.121571 0.864297 0
0.32234 0.494638 0
0.349629 0.465863 0
0.384335 0.442641 0
0.336831 0.43081 0
0.608343 0.412069 0
0.527752 0.244716 0
0.858468 0.369061 0
0.627123 0.221367 0
0.382188 0.284319 0
0.345561 0.3138 0
0.437163 0.330315 0
0.746731 0.229689 0
0.149179 0.573985 0
0.720027 0.100984 0
0.810234 0.070501 0
0.861213 0.415162 0
0.827831 0.478851 0
0.85 0.5 0
0.082894 0.447232 0
0.0883665 0.492719 0
0.0578625 0.514002 0
0.300642 0.749391 0
0.351723 0.729569 0
0.321394 0.725064 0
0.416449 0.301103 0
0.462668 0.300384 0
0.837044 0.431259 0
</DataArray>
</Points>
<Cells>
<DataArray  type="UInt32"  Name="connectivity"  format="ascii">
1 138 139 
14 137 139 
45 137 138 
137 138 139 
4 141 142 
27 140 142 
65 140 141 
140 141 142 
0 144 145 
23 143 145 
43 143 144 
143 144 145 
4 141 147 
65 141 146 
105 146 147 
141 146 147 
5 149 150 
31 148 150 
47 148 149 
148 149 150 
2 152 153 
32 151 153 
44 151 152 
151 152 153 
2 152 155 
15 154 155 
44 152 154 
152 154 155 
15 154 157 
44 154 156 
101 156 157 
154 156 157 
6 159 160 
43 158 160 
93 158 159 
158 159 160 
15 162 163 
16 161 163 
71 161 162 
161 162 163 
6 159 165 
7 164 165 
93 159 164 
159 164 165 
[...]
<PointData  Vectors="u"> 
<DataArray  type="Float32"  Name="u"  NumberOfComponents="3" format="ascii">
 0.000000e+00 0.000000e+00 0.000000e+00
 0.000000e+00 0.000000e+00 0.000000e+00
 0.000000e+00 0.000000e+00 0.000000e+00
 0.000000e+00 0.000000e+00 0.000000e+00
 0.000000e+00 0.000000e+00 0.000000e+00
 0.000000e+00 0.000000e+00 0.000000e+00
 0.000000e+00 0.000000e+00 0.000000e+00
 0.000000e+00 0.000000e+00 0.000000e+00
 0.000000e+00 0.000000e+00 0.000000e+00
 0.000000e+00 0.000000e+00 0.000000e+00
 0.000000e+00 0.000000e+00 0.000000e+00
 0.000000e+00 0.000000e+00 0.000000e+00
 0.000000e+00 0.000000e+00 0.000000e+00
 0.000000e+00 0.000000e+00 0.000000e+00
 0.000000e+00 0.000000e+00 0.000000e+00
 0.000000e+00 0.000000e+00 0.000000e+00
 0.000000e+00 0.000000e+00 0.000000e+00
 0.000000e+00 0.000000e+00 0.000000e+00
 0.000000e+00 0.000000e+00 0.000000e+00
 0.000000e+00 0.000000e+00 0.000000e+00
 0.000000e+00 0.000000e+00 0.000000e+00
 0.000000e+00 0.000000e+00 0.000000e+00
 0.000000e+00 0.000000e+00 0.000000e+00
 0.000000e+00 0.000000e+00 0.000000e+00
 0.000000e+00 0.000000e+00 0.000000e+00
 0.000000e+00 0.000000e+00 0.000000e+00
 0.000000e+00 0.000000e+00 0.000000e+00
 0.000000e+00 0.000000e+00 0.000000e+00
 0.000000e+00 0.000000e+00 0.000000e+00
 0.000000e+00 0.000000e+00 0.000000e+00
 0.000000e+00 0.000000e+00 0.000000e+00
 0.000000e+00 0.000000e+00 0.000000e+00
 1.190421e-04 -4.976750e-02 0.000000e+00
 2.266944e-04 -5.141094e-02 0.000000e+00
 2.263821e-04 -5.220559e-02 0.000000e+00
 1.279272e-04 -5.172863e-02 0.000000e+00
 4.982572e-02 -1.140227e-04 0.000000e+00
 5.141706e-02 -2.240560e-04 0.000000e+00
 5.218763e-02 -2.360944e-04 0.000000e+00
 5.168085e-02 -1.364940e-04 0.000000e+00
 2.544016e-02 -2.505636e-02 0.000000e+00
 5.817069e-03 -5.066936e-02 0.000000e+00
 5.080195e-02 -7.014973e-03 0.000000e+00
 3.390421e-03 -3.342737e-03 0.000000e+00
 6.364379e-05 -4.050945e-02 0.000000e+00
 4.594091e-02 -1.495418e-04 0.000000e+00
 4.208769e-02 -8.430820e-05 0.000000e+00
 1.566284e-04 -4.763911e-02 0.000000e+00
 1.177755e-02 -3.945144e-02 0.000000e+00
 4.892403e-02 -2.238840e-02 0.000000e+00
 5.153970e-02 -1.616844e-03 0.000000e+00
 1.954898e-03 -5.261745e-02 0.000000e+00
 1.363847e-02 -1.321318e-02 0.000000e+00
 3.016347e-02 -8.911134e-03 0.000000e+00
 4.295413e-02 -6.022142e-03 0.000000e+00
 1.795337e-03 -4.888745e-02 0.000000e+00
 6.982982e-04 -5.087256e-02 0.000000e+00
 1.734412e-02 -5.427272e-02 0.000000e+00
 1.021691e-02 -2.816521e-02 0.000000e+00
 4.866180e-02 -2.082117e-03 0.000000e+00
 5.435671e-02 -3.286195e-03 0.000000e+00
 3.959072e-03 -4.474353e-02 0.000000e+00
 3.606214e-03 -5.500637e-02 0.000000e+00
 5.083275e-02 -5.864095e-04 0.000000e+00
 5.255448e-02 -7.805299e-04 0.000000e+00
 6.187261e-02 -1.469312e-02 0.000000e+00
 2.004780e-02 -5.919813e-03 0.000000e+00
 3.921120e-02 -1.164603e-02 0.000000e+00
 4.619505e-04 -5.021728e-02 0.000000e+00
 1.836700e-03 -5.136423e-02 0.000000e+00
 5.060744e-03 -1.016877e-02 0.000000e+00
 5.927393e-04 -4.765844e-02 0.000000e+00
 3.833449e-02 -2.140969e-03 0.000000e+00
 3.404776e-02 -4.069469e-02 0.000000e+00
 4.504995e-02 -2.437310e-03 0.000000e+00
 3.546002e-02 -4.203270e-03 0.000000e+00
 6.114637e-03 -3.365098e-02 0.000000e+00
 8.479597e-04 -5.201034e-02 0.000000e+00
 1.141537e-02 -4.806359e-02 0.000000e+00
 5.560135e-03 -4.015357e-02 0.000000e+00
 1.775616e-02 -3.221752e-02 0.000000e+00
 6.332881e-03 -1.965997e-02 0.000000e+00
 5.533048e-02 -7.425306e-03 0.000000e+00
 4.632943e-02 -9.945804e-03 0.000000e+00
 3.248908e-02 -1.799915e-02 0.000000e+00
 8.379621e-03 -5.518785e-02 0.000000e+00
 3.340700e-03 -5.197442e-02 0.000000e+00
 5.185285e-02 -3.648321e-03 0.000000e+00
 5.174533e-02 -6.175149e-04 0.000000e+00
 4.658052e-02 -4.135957e-04 0.000000e+00
 5.245671e-02 -9.958242e-04 0.000000e+00
 2.307284e-02 -1.548947e-02 0.000000e+00
 1.208865e-02 -6.254103e-02 0.000000e+00
 1.031727e-02 -4.890859e-03 0.000000e+00
 1.533017e-03 -5.338862e-02 0.000000e+00
 3.387439e-03 -5.513119e-02 0.000000e+00
 2.463200e-02 -3.003682e-03 0.000000e+00
 1.691481e-03 -4.571297e-02 0.000000e+00
 3.750647e-03 -4.828489e-02 0.000000e+00
 5.006950e-02 -1.347729e-03 0.000000e+00
 4.467357e-04 -5.254781e-02 0.000000e+00
 2.467717e-04 -4.790479e-02 0.000000e+00
 1.529233e-03 -5.030287e-02 0.000000e+00
 2.150053e-02 -4.343953e-02 0.000000e+00
 1.602619e-02 -2.234290e-02 0.000000e+00
 5.146565e-02 -3.886883e-02 0.000000e+00
 5.533008e-02 -3.309346e-03 0.000000e+00
 5.176497e-02 -1.297244e-02 0.000000e+00
 5.286060e-02 -2.019302e-03 0.000000e+00
 4.715026e-02 -5.913992e-03 0.000000e+00
 3.689976e-02 -2.833529e-02 0.000000e+00
 4.922950e-02 -4.034953e-03 0.000000e+00
 3.818676e-03 -2.574068e-02 0.000000e+00
 5.001945e-02 -1.150768e-03 0.000000e+00
 7.853696e-03 -4.403215e-02 0.000000e+00
 4.513724e-02 -1.165809e-03 0.000000e+00
 6.475695e-03 -4.724753e-02 0.000000e+00
 1.144264e-02 -3.346824e-02 0.000000e+00
 6.615019e-04 -4.313991e-02 0.000000e+00
 4.995964e-02 -3.094105e-04 0.000000e+00
 1.301000e-03 -5.023218e-02 0.000000e+00
 2.234454e-03 -3.303345e-02 0.000000e+00
 1.812398e-03 -3.718124e-02 0.000000e+00
 3.033811e-03 -5.344266e-02 0.000000e+00
 4.797487e-03 -5.329646e-02 0.000000e+00
 5.319035e-02 -5.293927e-03 0.000000e+00
 1.143738e-03 -3.891185e-02 0.000000e+00
 2.946657e-03 -5.030645e-02 0.000000e+00
 2.959023e-02 -3.551904e-03 0.000000e+00
 1.069646e-03 -5.285117e-02 0.000000e+00
 3.213478e-02 -5.641622e-02 0.000000e+00
 2.714755e-02 -3.402224e-02 0.000000e+00
 4.530101e-02 -7.522467e-04 0.000000e+00
 4.047248e-02 -1.918925e-02 0.000000e+00
 5.039315e-02 -2.557081e-03 0.000000e+00
 4.204619e-02 -2.159500e-04 0.000000e+00
 4.529502e-02 -1.527655e-02 0.000000e+00
 3.420497e-02 -6.906526e-05 0.000000e+00
 3.440310e-02 -3.116900e-05 0.000000e+00
 0.000000e+00 0.000000e+00 0.000000e+00
 5.638679e-02 -6.208685e-03 0.000000e+00
 6.405896e-02 -2.278795e-02 0.000000e+00
 0.000000e+00 0.000000e+00 0.000000e+00
 1.394700e-03 -3.402030e-03 0.000000e+00
 9.905136e-04 -9.806721e-04 0.000000e+00
 0.000000e+00 0.000000e+00 0.000000e+00
 6.107454e-02 -2.824431e-02 0.000000e+00
 5.908909e-02 -4.751353e-02 0.000000e+00
 7.386087e-05 -3.526563e-02 0.000000e+00
 4.719807e-05 -3.523146e-02 0.000000e+00
 0.000000e+00 0.000000e+00 0.000000e+00
 8.689374e-05 -4.715769e-02 0.000000e+00
 1.927973e-05 -2.772191e-02 0.000000e+00
 4.200741e-05 -4.253070e-02 0.000000e+00
 5.385325e-05 -2.750501e-02 0.000000e+00
 0.000000e+00 0.000000e+00 0.000000e+00
 1.396012e-04 -4.523997e-02 0.000000e+00
 1.297953e-04 -3.831054e-02 0.000000e+00
 6.633433e-03 -4.227018e-03 0.000000e+00
 6.534243e-03 -1.813282e-03 0.000000e+00
 3.410022e-03 -1.370773e-03 0.000000e+00
 2.363251e-04 -3.772113e-02 0.000000e+00
 1.768991e-04 -3.811835e-02 0.000000e+00
 0.000000e+00 0.000000e+00 0.000000e+00
 9.900409e-03 -1.889330e-03 0.000000e+00
 0.000000e+00 0.000000e+00 0.000000e+00
 0.000000e+00 0.000000e+00 0.000000e+00
 2.302845e-02 -4.358865e-03 0.000000e+00
 1.693033e-02 -1.214041e-03 0.000000e+00
 1.774626e-02 -2.178495e-03 0.000000e+00
 6.514001e-04 -4.582274e-02 0.000000e+00
 2.065530e-04 -3.172439e-02 0.000000e+00
 3.014045e-04 -3.106956e-02 0.000000e+00
 0.000000e+00 0.000000e+00 0.000000e+00
 7.879836e-03 -7.700661e-03 0.000000e+00
 4.335196e-03 -6.540661e-03 0.000000e+00
 1.441007e-02 -2.279940e-03 0.000000e+00
 0.000000e+00 0.000000e+00 0.000000e+00
 1.920750e-02 -1.075098e-03 0.000000e+00
 0.000000e+00 0.000000e+00 0.000000e+00
 2.938773e-02 -1.491324e-03 0.000000e+00
 2.676879e-02 -1.637816e-03 0.000000e+00
 0.000000e+00 0.000000e+00 0.000000e+00
 3.763189e-02 -7.850399e-03 0.000000e+00
 3.348086e-02 -6.530158e-03 0.000000e+00
 3.470584e-02 -1.054375e-02 0.000000e+00
 2.961868e-02 -7.337626e-04 0.000000e+00
 2.782736e-02 -9.133433e-04 0.000000e+00
 0.000000e+00 0.000000e+00 0.000000e+00
 4.219057e-02 -2.388642e-03 0.000000e+00
 3.671652e-02 -1.009478e-03 0.000000e+00
 4.701068e-02 -1.639176e-04 0.000000e+00
 3.954709e-02 -1.147089e-04 0.000000e+00
 2.858060e-02 -4.569912e-05 0.000000e+00
 1.459183e-03 -4.298947e-02 0.000000e+00
 3.711980e-04 -2.835079e-02 0.000000e+00
 6.256643e-04 -3.767880e-02 0.000000e+00
 4.593273e-04 -2.726205e-02 0.000000e+00
 0.000000e+00 0.000000e+00 0.000000e+00
 2.223695e-02 -3.319728e-02 0.000000e+00
 2.645726e-02 -2.941658e-02 0.000000e+00
 2.163058e-02 -2.880742e-02 0.000000e+00
 4.773102e-03 -5.266082e-02 0.000000e+00
 1.886747e-02 -6.160330e-02 0.000000e+00
 0.000000e+00 0.000000e+00 0.000000e+00
 6.268240e-03 -5.879924e-02 0.000000e+00
 1.850461e-03 -4.466386e-02 0.000000e+00
 2.052909e-03 -5.248936e-02 0.000000e+00
 5.851942e-04 -3.751362e-02 0.000000e+00
 1.018402e-03 -4.172682e-02 0.000000e+00
 4.067166e-04 -3.671159e-02 0.000000e+00
 0.000000e+00 0.000000e+00 0.000000e+00
 3.857983e-04 -5.120495e-02 0.000000e+00
 2.871365e-04 -5.064223e-02 0.000000e+00
 1.806174e-04 -5.097059e-02 0.000000e+00
 4.712990e-02 -2.779764e-04 0.000000e+00
 2.822267e-02 -6.541101e-05 0.000000e+00
 4.912973e-02 -1.067513e-04 0.000000e+00
 2.865183e-02 -2.859822e-05 0.000000e+00
 4.433691e-02 -5.952212e-05 0.000000e+00
 4.536228e-02 -1.680576e-03 0.000000e+00
 3.572814e-02 -5.227745e-04 0.000000e+00
 3.783517e-02 -8.174770e-04 0.000000e+00
 5.171370e-02 -1.107561e-03 0.000000e+00
 3.665151e-02 -3.459075e-04 0.000000e+00
 4.465236e-02 -4.240341e-04 0.000000e+00
 4.523915e-02 -9.531040e-04 0.000000e+00
 3.381104e-02 -3.717447e-04 0.000000e+00
 0.000000e+00 0.000000e+00 0.000000e+00
 3.754074e-02 -5.202803e-04 0.000000e+00
 0.000000e+00 0.000000e+00 0.000000e+00
 7.313212e-04 -2.606196e-02 0.000000e+00
 6.068710e-04 -2.757774e-02 0.000000e+00
 0.000000e+00 0.000000e+00 0.000000e+00
 3.506204e-03 -3.994241e-02 0.000000e+00
 2.997596e-03 -4.216419e-02 0.000000e+00
 4.753438e-03 -4.264957e-02 0.000000e+00
 1.351099e-04 -3.900014e-02 0.000000e+00
 2.540278e-04 -3.966369e-02 0.000000e+00
 0.000000e+00 0.000000e+00 0.000000e+00
 4.998840e-03 -2.986884e-02 0.000000e+00
 1.477696e-03 -2.125385e-02 0.000000e+00
 2.461902e-03 -2.846855e-02 0.000000e+00
 5.132558e-02 -6.447088e-04 0.000000e+00
 5.158007e-02 -3.484308e-04 0.000000e+00
 5.118993e-02 -3.460388e-04 0.000000e+00
 4.580684e-02 -1.817294e-03 0.000000e+00
 4.272771e-02 -1.011218e-03 0.000000e+00
 0.000000e+00 0.000000e+00 0.000000e+00
 1.542918e-03 -1.843453e-02 0.000000e+00
 0.000000e+00 0.000000e+00 0.000000e+00
 2.445619e-03 -1.448388e-02 0.000000e+00
 2.365485e-03 -1.791346e-02 0.000000e+00
 0.000000e+00 0.000000e+00 0.000000e+00
 4.181958e-04 -5.210914e-02 0.000000e+00
 4.286422e-04 -5.167860e-02 0.000000e+00
 2.417876e-04 -5.181973e-02 0.000000e+00
 2.207501e-04 -5.229127e-02 0.000000e+00
 3.036912e-04 -5.242489e-02 0.000000e+00
 1.875553e-04 -5.245992e-02 0.000000e+00
 4.843551e-02 -1.267788e-04 0.000000e+00
 4.258547e-02 -4.622412e-05 0.000000e+00
 3.572729e-02 -1.283069e-04 0.000000e+00
 3.547218e-02 -1.919792e-04 0.000000e+00
 0.000000e+00 0.000000e+00 0.000000e+00
 5.062499e-02 -4.043876e-03 0.000000e+00
 4.985004e-02 -5.384411e-03 0.000000e+00
 5.147372e-02 -5.112859e-03 0.000000e+00
 5.198383e-02 -3.620085e-04 0.000000e+00
 5.180559e-02 -2.430839e-04 0.000000e+00
 2.950485e-04 -5.177086e-02 0.000000e+00
 1.338968e-04 -5.034337e-02 0.000000e+00
 6.066922e-05 -4.439454e-02 0.000000e+00
 2.771462e-02 -1.688094e-02 0.000000e+00
 2.427289e-02 -2.016594e-02 0.000000e+00
 2.922255e-02 -2.167188e-02 0.000000e+00
 1.961753e-02 -1.901452e-02 0.000000e+00
 2.058510e-02 -2.374836e-02 0.000000e+00
 8.607091e-03 -4.755457e-02 0.000000e+00
 6.325517e-03 -4.902156e-02 0.000000e+00
 8.274205e-03 -4.984796e-02 0.000000e+00
 4.993815e-02 -3.469704e-04 0.000000e+00
 5.059252e-02 -2.543360e-04 0.000000e+00
 5.406815e-02 -6.234086e-03 0.000000e+00
 5.218771e-02 -6.206260e-03 0.000000e+00
 5.290739e-02 -7.577863e-03 0.000000e+00
 5.246278e-02 -3.300206e-04 0.000000e+00
 5.233598e-02 -4.137743e-04 0.000000e+00
 5.243157e-02 -2.029677e-04 0.000000e+00
 4.055183e-03 -5.253045e-02 0.000000e+00
 5.457679e-03 -5.212975e-02 0.000000e+00
 4.444548e-03 -5.148950e-02 0.000000e+00
 5.054487e-04 -5.221292e-02 0.000000e+00
 2.769807e-04 -4.905829e-02 0.000000e+00
 4.863212e-02 -1.450884e-02 0.000000e+00
 4.687658e-02 -1.839539e-02 0.000000e+00
 5.107976e-02 -1.724214e-02 0.000000e+00
 1.877741e-03 -6.530940e-03 0.000000e+00
 1.964660e-03 -9.912315e-03 0.000000e+00
 0.000000e+00 0.000000e+00 0.000000e+00
 5.099503e-02 -1.799282e-04 0.000000e+00
 1.115494e-02 -2.117067e-02 0.000000e+00
 1.484083e-02 -1.773481e-02 0.000000e+00
 9.994819e-03 -1.669051e-02 0.000000e+00
 4.872317e-02 -1.154737e-02 0.000000e+00
 5.123959e-02 -9.543271e-03 0.000000e+00
 4.893215e-02 -8.635815e-03 0.000000e+00
 4.308423e-02 -1.103704e-02 0.000000e+00
 4.442672e-02 -8.074554e-03 0.000000e+00
 4.132149e-02 -8.562332e-03 0.000000e+00
 4.549065e-04 -5.022690e-02 0.000000e+00
 1.691918e-04 -4.907043e-02 0.000000e+00
 1.015647e-03 -5.246054e-02 0.000000e+00
 1.481409e-03 -5.280782e-02 0.000000e+00
 1.361815e-03 -5.225879e-02 0.000000e+00
 3.403683e-03 -4.942910e-02 0.000000e+00
 4.157080e-03 -5.039737e-02 0.000000e+00
 4.823150e-03 -4.931251e-02 0.000000e+00
 6.022533e-03 -3.711841e-02 0.000000e+00
 8.364990e-03 -3.977949e-02 0.000000e+00
 9.000097e-03 -3.655689e-02 0.000000e+00
 1.602632e-02 -4.638977e-02 0.000000e+00
 1.618028e-02 -4.107072e-02 0.000000e+00
 1.223188e-02 -4.382045e-02 0.000000e+00
 4.393809e-02 -5.028307e-02 0.000000e+00
 4.068508e-02 -6.349138e-02 0.000000e+00
 4.638444e-02 -2.663307e-04 0.000000e+00
 0.000000e+00 0.000000e+00 0.000000e+00
 5.251138e-02 -5.595652e-04 0.000000e+00
 5.105485e-02 -2.045202e-04 0.000000e+00
 5.053199e-02 -9.466278e-04 0.000000e+00
 5.083867e-02 -1.569887e-03 0.000000e+00
 5.114211e-02 -1.055483e-03 0.000000e+00
 6.827595e-03 -4.215950e-02 0.000000e+00
 9.692595e-03 -4.205532e-02 0.000000e+00
 2.150377e-03 -5.029454e-02 0.000000e+00
 2.411032e-03 -4.962394e-02 0.000000e+00
 1.685890e-03 -4.969930e-02 0.000000e+00
 1.048819e-02 -5.198470e-02 0.000000e+00
 1.227053e-02 -5.533579e-02 0.000000e+00
 1.422911e-02 -5.063605e-02 0.000000e+00
 5.214505e-02 -7.395335e-04 0.000000e+00
 5.166884e-02 -1.049039e-03 0.000000e+00
 5.216577e-02 -1.231771e-03 0.000000e+00
 4.759415e-02 -3.469101e-03 0.000000e+00
 4.891127e-02 -2.981764e-03 0.000000e+00
 4.725656e-02 -2.343989e-03 0.000000e+00
 5.251527e-02 -2.794069e-03 0.000000e+00
 5.216004e-02 -1.894597e-03 0.000000e+00
 5.166498e-02 -2.483359e-03 0.000000e+00
 3.650353e-02 -1.885695e-02 0.000000e+00
 3.974218e-02 -1.528623e-02 0.000000e+00
 3.609770e-02 -1.477301e-02 0.000000e+00
 5.636828e-02 -1.467900e-02 0.000000e+00
 5.628371e-02 -2.091313e-02 0.000000e+00
 2.183183e-02 -1.064758e-02 0.000000e+00
 2.676932e-02 -1.212180e-02 0.000000e+00
 2.519063e-02 -7.603391e-03 0.000000e+00
 2.717030e-02 -3.324052e-03 0.000000e+00
 2.331184e-02 -1.364055e-03 0.000000e+00
 1.709814e-02 -2.713160e-02 0.000000e+00
 1.303320e-02 -2.543776e-02 0.000000e+00
 1.391368e-02 -2.994464e-02 0.000000e+00
 4.679951e-02 -7.721701e-03 0.000000e+00
 4.523412e-02 -6.083112e-03 0.000000e+00
 1.320684e-03 -5.174697e-02 0.000000e+00
 1.966615e-03 -5.197967e-02 0.000000e+00
 2.303986e-03 -5.372032e-02 0.000000e+00
 2.458091e-03 -5.298937e-02 0.000000e+00
 1.871969e-03 -5.326901e-02 0.000000e+00
 2.729013e-03 -4.742153e-02 0.000000e+00
 3.944931e-03 -4.672634e-02 0.000000e+00
 2.684953e-03 -4.560020e-02 0.000000e+00
 8.315254e-04 -5.144252e-02 0.000000e+00
 1.507673e-02 -5.425075e-03 0.000000e+00
 1.221326e-02 -8.942446e-03 0.000000e+00
 1.712923e-02 -9.565411e-03 0.000000e+00
 5.719241e-03 -1.482803e-02 0.000000e+00
 9.238066e-03 -1.191681e-02 0.000000e+00
 1.060490e-03 -4.972144e-02 0.000000e+00
 1.097449e-03 -4.874718e-02 0.000000e+00
 1.730675e-03 -5.082348e-02 0.000000e+00
 1.084528e-03 -5.062884e-02 0.000000e+00
 1.206863e-03 -5.109436e-02 0.000000e+00
 4.830734e-02 -4.927544e-03 0.000000e+00
 4.640629e-02 -4.162272e-03 0.000000e+00
 3.736136e-02 -3.059979e-03 0.000000e+00
 3.965068e-02 -5.425186e-03 0.000000e+00
 4.166925e-02 -4.004136e-03 0.000000e+00
 1.017011e-02 -5.871815e-02 0.000000e+00
 1.629678e-02 -5.946909e-02 0.000000e+00
 5.078107e-02 -2.920998e-02 0.000000e+00
 3.458823e-02 -2.568510e-04 0.000000e+00
 0.000000e+00 0.000000e+00 0.000000e+00
 4.445418e-02 -4.013931e-03 0.000000e+00
 1.434431e-02 -3.294551e-02 0.000000e+00
 1.169900e-02 -3.632717e-02 0.000000e+00
 1.491487e-02 -3.627846e-02 0.000000e+00
 5.006589e-03 -2.311621e-02 0.000000e+00
 6.885706e-03 -2.753709e-02 0.000000e+00
 8.433280e-03 -2.408562e-02 0.000000e+00
 1.315999e-03 -5.314267e-02 0.000000e+00
 7.904114e-04 -5.260439e-02 0.000000e+00
 8.754227e-04 -5.210167e-02 0.000000e+00
 3.203289e-02 -3.161664e-02 0.000000e+00
 3.035970e-02 -3.706960e-02 0.000000e+00
 3.625206e-02 -3.442115e-02 0.000000e+00
 4.984960e-03 -4.780506e-02 0.000000e+00
 5.291193e-03 -4.600338e-02 0.000000e+00
 1.010311e-03 -2.241267e-02 0.000000e+00
 8.251308e-04 -2.424274e-02 0.000000e+00
 0.000000e+00 0.000000e+00 0.000000e+00
 7.228550e-03 -4.577006e-02 0.000000e+00
 9.699421e-03 -4.569456e-02 0.000000e+00
 2.476717e-02 -3.886235e-02 0.000000e+00
 1.988620e-02 -3.739255e-02 0.000000e+00
 8.827708e-03 -3.366515e-02 0.000000e+00
 1.094855e-02 -3.092937e-02 0.000000e+00
 8.087104e-03 -3.108431e-02 0.000000e+00
 5.023254e-02 -1.906909e-03 0.000000e+00
 5.105241e-02 -2.113261e-03 0.000000e+00
 5.695893e-02 -5.734627e-03 0.000000e+00
 5.549982e-02 -3.535193e-03 0.000000e+00
 5.498588e-02 -4.961447e-03 0.000000e+00
 4.308246e-02 -1.727376e-02 0.000000e+00
 4.212608e-02 -1.365983e-02 0.000000e+00
 5.416046e-02 -1.027594e-02 0.000000e+00
 5.807449e-02 -1.009568e-02 0.000000e+00
 3.129646e-02 -1.325572e-02 0.000000e+00
 4.293239e-02 -3.315358e-02 0.000000e+00
 4.168860e-02 -4.106589e-02 0.000000e+00
 0.000000e+00 0.000000e+00 0.000000e+00
 7.258109e-03 -5.244638e-02 0.000000e+00
 6.237876e-03 -5.406046e-02 0.000000e+00
 4.348552e-03 -5.431936e-02 0.000000e+00
 5.590281e-03 -5.548502e-02 0.000000e+00
 2.521963e-03 -5.160832e-02 0.000000e+00
 2.600790e-03 -5.237677e-02 0.000000e+00
 5.326130e-02 -1.572779e-03 0.000000e+00
 5.346691e-02 -2.596805e-03 0.000000e+00
 5.374440e-02 -1.908617e-03 0.000000e+00
 5.244585e-02 -4.450268e-03 0.000000e+00
 5.394583e-02 -4.348833e-03 0.000000e+00
 5.313750e-02 -3.666899e-03 0.000000e+00
 4.936231e-02 -8.297359e-04 0.000000e+00
 4.988936e-02 -5.673733e-04 0.000000e+00
 5.254051e-02 -1.924717e-03 0.000000e+00
 5.422094e-02 -2.258473e-03 0.000000e+00
 5.269410e-02 -1.317399e-03 0.000000e+00
 1.830215e-02 -1.436763e-02 0.000000e+00
 2.330402e-02 -6.315076e-02 0.000000e+00
 2.340285e-02 -5.585951e-02 0.000000e+00
 1.498655e-03 -5.275230e-02 0.000000e+00
 2.434671e-03 -5.437973e-02 0.000000e+00
 2.383838e-03 -5.419260e-02 0.000000e+00
 6.403808e-04 -4.726959e-02 0.000000e+00
 6.305987e-03 -5.732053e-02 0.000000e+00
 3.728641e-03 -5.581351e-02 0.000000e+00
 2.810852e-02 -5.817312e-03 0.000000e+00
 3.247277e-02 -3.876344e-03 0.000000e+00
 3.053633e-02 -5.996289e-03 0.000000e+00
 1.468294e-03 -3.825615e-02 0.000000e+00
 2.414775e-03 -4.350881e-02 0.000000e+00
 1.082244e-03 -4.494460e-02 0.000000e+00
 1.212988e-03 -4.747748e-02 0.000000e+00
 1.818185e-03 -4.762977e-02 0.000000e+00
 3.241082e-03 -5.111202e-02 0.000000e+00
 2.377399e-03 -5.092710e-02 0.000000e+00
 2.642839e-03 -4.866995e-02 0.000000e+00
 4.990687e-02 -3.233483e-03 0.000000e+00
 4.960947e-02 -2.398138e-03 0.000000e+00
 4.883011e-02 -1.121911e-03 0.000000e+00
 4.793691e-02 -1.357267e-03 0.000000e+00
 4.946093e-02 -1.698702e-03 0.000000e+00
 7.239219e-04 -5.268804e-02 0.000000e+00
 6.574366e-04 -5.242098e-02 0.000000e+00
 3.916947e-04 -4.783296e-02 0.000000e+00
 7.296516e-04 -5.004978e-02 0.000000e+00
 2.031318e-02 -4.927451e-02 0.000000e+00
 2.637429e-02 -4.876007e-02 0.000000e+00
 3.426998e-02 -4.781478e-02 0.000000e+00
 2.753937e-02 -4.282116e-02 0.000000e+00
 5.936853e-02 -7.064930e-03 0.000000e+00
 4.585938e-02 -1.244623e-02 0.000000e+00
 5.286895e-02 -9.639670e-04 0.000000e+00
 4.887070e-02 -6.669401e-03 0.000000e+00