<?xml version="1.0"?>
<VTKFile type="UnstructuredGrid"  version="0.1"  >
<UnstructuredGrid>
<Piece  NumberOfPoints="505" NumberOfCells="928">
<Points>
<DataArray  type="Float32"  NumberOfComponents="3"  format="ascii">
0 0 0
1 0 0
0 1 0
1 0.5 0
0.5 0.5 0
0.5 1 0
0.1 0 0
0.2 0 0
0.3 0 0
0.4 0 0
0.5 0 0
0.6 0 0
0.7 0 0
0.8 0 0
0.9 0 0
0 0.9 0
0 0.8 0
0 0.7 0
0 0.6 0
0 0.5 0
0 0.4 0
0 0.3 0
0 0.2 0
0 0.1 0
0.9 0.5 0
0.8 0.5 0
0.7 0.5 0
0.6 0.5 0
0.5 0.6 0
0.5 0.7 0
0.5 0.8 0
0.5 0.9 0
0.1 1 0
0.2 1 0
0.3 1 0
0.4 1 0
1 0.1 0
1 0.2 0
1 0.3 0
1 0.4 0
0.300178 0.296564 0
0.247566 0.664879 0
0.639694 0.259804 0
0.06564 0.06472 0
0.04439 0.954144 0
0.932418 0.064715 0
0.951013 0.456419 0
0.437622 0.939659 0
0.195334 0.464441 0
0.483382 0.329596 0
0.834786 0.236295 0
0.307228 0.81139 0
0.178229 0.173372 0
0.366998 0.134199 0
0.547485 0.14214 0
0.124832 0.74927 0
0.160163 0.896658 0
0.342556 0.535243 0
0.147651 0.342018 0
0.729803 0.127878 0
0.725981 0.357775 0
0.121369 0.600441 0
0.372954 0.70814 0
0.908503 0.151525 0
0.89851 0.333305 0
0.556275 0.400898 0
0.259184 0.092178 0
0.46329 0.194362 0
0.423773 0.869712 0
0.22823 0.818162 0
0.081292 0.144905 0
0.082979 0.831935 0
0.549999 0.065419 0
0.371537 0.407588 0
0.642628 0.097865 0
0.459835 0.086595 0
0.108565 0.418567 0
0.273082 0.902112 0
0.256598 0.556659 0
0.11951 0.509541 0
0.234147 0.370527 0
0.097453 0.253261 0
0.638438 0.342389 0
0.554656 0.224779 0
0.373432 0.237603 0
0.339663 0.62579 0
0.27079 0.747786 0
0.733958 0.266592 0
0.928527 0.244458 0
0.853116 0.071497 0
0.818426 0.404817 0
0.280194 0.200604 0
0.417859 0.565185 0
0.147241 0.079056 0
0.389149 0.789957 0
0.42808 0.654642 0
0.343469 0.059202 0
0.086765 0.684153 0
0.162043 0.675011 0
0.809252 0.14201 0
0.364337 0.928607 0
0.077532 0.916553 0
0.159064 0.807906 0
0.302124 0.454032 0
0.205909 0.272176 0
0.449664 0.407415 0
0.66041 0.423241 0
0.562201 0.303789 0
0.802658 0.320211 0
0.614551 0.182931 0
0.390944 0.331035 0
0.687136 0.18846 0
0.070577 0.342498 0
0.741087 0.437361 0
0.176989 0.547528 0
0.710251 0.07409 0
0.192845 0.608574 0
0.171114 0.398277 0
0.058959 0.753084 0
0.904 0.425508 0
0.438039 0.730373 0
0.057223 0.475897 0
0.058502 0.552106 0
0.330493 0.750997 0
0.312295 0.699131 0
0.684882 0.307111 0
0.053312 0.627311 0
0.198798 0.743695 0
0.392326 0.069953 0
0.351519 0.860283 0
0.397134 0.477694 0
0.319385 0.371198 0
0.767351 0.069505 0
0.441954 0.271171 0
0.759504 0.192785 0
0.855661 0.457701 0
0.500847 0.264652 0
0.916209 0.0323575 0
0.966209 0.0323575 0
0.95 0 0
0.578137 0.450449 0
0.528137 0.450449 0
0.55 0.5 0
0.03282 0.08236 0
0.03282 0.03236 0
0 0.05 0
0.502969 0.404157 0
0.474832 0.453708 0
0.468811 0.91983 0
0.468811 0.96983 0
0.5 0.95 0
0.072195 0.977072 0
0.022195 0.977072 0
0.05 1 0
0.022195 0.927072 0
0 0.95 0
0.060961 0.935348 0
0.038766 0.908276 0
0.106441 0.071888 0
0.123621 0.039528 0
0.08282 0.03236 0
0.0414895 0.815967 0
0.0414895 0.865968 0
0 0.85 0
0.173621 0.039528 0
0.15 0 0
0.05 0 0
0.301327 0.07569 0
0.321735 0.029601 0
0.279592 0.046089 0
0.070969 0.792509 0
0.0294795 0.776542 0
0.0294795 0.726542 0
0 0.75 0
0.114267 0.111981 0
0.073466 0.104813 0
0.229592 0.046089 0
0.25 0 0
0.371735 0.029601 0
0.35 0 0
0.479917 0.0432975 0
0.429918 0.0432975 0
0.45 0 0
0.461562 0.140479 0
0.413416 0.110397 0
0.415144 0.16428 0
0.574999 0.0327095 0
0.525 0.0327095 0
0.55 0 0
0.596313 0.081642 0
0.621314 0.0489325 0
0.927507 0.440964 0
0.902 0.462754 0
0.925507 0.47821 0
0.0700385 0.655732 0
0.026656 0.663655 0
0.0433825 0.692076 0
0.026656 0.613655 0
0 0.65 0
0.276766 0.370862 0
0.309781 0.333881 0
0.267162 0.333545 0
0.458929 0.582593 0
0.458929 0.532593 0
0.5 0.55 0
0.422969 0.609913 0
0.46404 0.627321 0
0.43306 0.692508 0
0.46902 0.715186 0
0.46404 0.677321 0
0.46902 0.765186 0
0.5 0.75 0
0.180082 0.948329 0
0.130082 0.948329 0
0.15 1 0
0.87983 0.441605 0
0.87783 0.478851 0
0.975507 0.42821 0
0.975507 0.47821 0
1 0.45 0
0.676439 0.0859775 0
0.705125 0.037045 0
0.671314 0.0489325 0
0.779756 0.421089 0
0.770544 0.46868 0
0.809213 0.452408 0
0.738801 0.0717975 0
0.733675 0.0347525 0
0.95 0.5 0
0.720544 0.46868 0
0.75 0.5 0
0.029251 0.526053 0
0.029251 0.576053 0
0 0.55 0
0.089006 0.530824 0
0.0899355 0.576273 0
0.12044 0.554991 0
0.461886 0.884856 0
0.461886 0.834856 0
0.5 0.85 0
0.089571 0.380533 0
0.0352885 0.371249 0
0.0542825 0.409284 0
0.918515 0.197991 0
0.964263 0.222229 0
0.954252 0.175762 0
0.630205 0.46162 0
0.680205 0.46162 0
0.65 0.5 0
0.0352885 0.321249 0
0 0.35 0
0.0487265 0.226631 0
0.0487265 0.276631 0
0 0.25 0
0.286541 0.951056 0
0.236541 0.951056 0
0.25 1 0
0.382169 0.964303 0
0.332168 0.964303 0
0.35 1 0
0.966209 0.0823575 0
1 0.05 0
0.876558 0.0357485 0
0.826558 0.0357485 0
0.85 0 0
0.710547 0.227526 0
0.663415 0.224132 0
0.686826 0.263198 0
0.964263 0.272229 0
1 0.25 0
0.40098 0.934133 0
0.418811 0.96983 0
0.45 1 0
0.326813 0.219104 0
0.290186 0.248584 0
0.336805 0.267084 0
0.243052 0.23639 0
0.253043 0.28437 0
0.224721 0.582616 0
0.220205 0.636726 0
0.252082 0.610769 0
0.92046 0.10812 0
0.954252 0.125762 0
0.66166 0.32475 0
0.662288 0.283458 0
0.639066 0.301096 0
0.949255 0.366653 0
0.949255 0.316653 0
1 0.35 0
0.291542 0.723459 0
0.27993 0.682005 0
0.259178 0.706333 0
0.394055 0.89916 0
0.430698 0.904686 0
0.531524 0.28422 0
0.492115 0.297124 0
0.522791 0.316692 0
0.040646 0.122453 0
0.040646 0.172453 0
0 0.15 0
1 0.15 0
0.151681 0.262718 0
0.192069 0.222774 0
0.137841 0.213317 0
0.558428 0.264284 0
0.600947 0.281797 0
0.597175 0.242291 0
0.508973 0.20957 0
0.551071 0.183459 0
0.505387 0.168251 0
0.118847 0.906605 0
0.088766 0.958276 0
0.3123 0.881198 0
0.329373 0.835836 0
0.290155 0.856751 0
0.18042 0.709353 0
0.223182 0.704287 0
0.204805 0.669945 0
0.114037 0.464054 0
0.157422 0.486991 0
0.15195 0.441504 0
0.279361 0.505346 0
0.248729 0.459236 0
0.225966 0.51055 0
0.423399 0.442555 0
0.448567 0.488847 0
0.892767 0.068106 0
0.65 0 0
0.901255 0.379406 0
0.952 0.412754 0
0.858877 0.146767 0
0.822019 0.189153 0
0.871644 0.19391 0
0.14825 0.528535 0
0.186162 0.505985 0
0.178931 0.775801 0
0.161815 0.746482 0
0.141948 0.778588 0
0.29813 0.591225 0
0.34111 0.580516 0
0.299577 0.545951 0
0.913519 0.288882 0
0.881657 0.240376 0
0.866648 0.2848 0
0.664882 0.143162 0
0.708469 0.158169 0
0.686215 0.112871 0
0.768308 0.293401 0
0.818722 0.278253 0
0.784372 0.251443 0
0.407693 0.254387 0
0.452622 0.232766 0
0.418361 0.215983 0
0.559238 0.352343 0
0.519829 0.365247 0
0.269689 0.146391 0
0.323596 0.167402 0
0.313091 0.113188 0
0.367897 0.0645775 0
0.396163 0.0349765 0
0.220028 0.321352 0
0.17678 0.307097 0
0.190899 0.356272 0
0.584604 0.203855 0
0.581018 0.162535 0
0.250656 0.860137 0
0.267729 0.814776 0
0.359821 0.770477 0
0.31886 0.781193 0
0.348189 0.800674 0
0.124404 0.679582 0
0.141706 0.637726 0
0.104067 0.642297 0
0.216622 0.899385 0
0.203213 0.085617 0
0.162735 0.126214 0
0.218707 0.132775 0
0.0893725 0.199083 0
0.129761 0.159139 0
0.121022 0.819921 0
0.103905 0.790602 0
0.193647 0.813034 0
0.159614 0.852282 0
0.194196 0.85741 0
0.650843 0.185696 0
0.628589 0.140398 0
0.504917 0.076007 0
0.50366 0.114367 0
0.548742 0.103779 0
0.378761 0.595487 0
0.380208 0.550214 0
0.466523 0.368506 0
0.783675 0.0347525 0
0.75 0 0
0.595056 0.120002 0
0.20263 0.384402 0
0.183224 0.431359 0
0.214741 0.417484 0
0.084015 0.29788 0
0.109114 0.342258 0
0.122552 0.29764 0
0.370334 0.82512 0
0.387646 0.864998 0
0.406461 0.829835 0
0.355164 0.351116 0
0.345461 0.389393 0
0.38124 0.369312 0
0.177444 0.641792 0
0.157107 0.604507 0
0.0286115 0.437949 0
0.0286115 0.487949 0
0 0.45 0
0.184917 0.578051 0
0.216794 0.552094 0
0.310754 0.412615 0
0.268135 0.41228 0
0.13984 0.408422 0
0.159382 0.370147 0
0.128108 0.380293 0
0.784378 0.167398 0
0.797145 0.21454 0
0.649424 0.382815 0
0.693196 0.390508 0
0.682209 0.350082 0
0.471401 0.267911 0
0.482069 0.229507 0
0.600319 0.323089 0
0.597356 0.371644 0
0.370215 0.185901 0
0.420304 0.369225 0
0.410601 0.407502 0
0.5 0.65 0
0.293615 0.645334 0
0.325979 0.66246 0
0.342624 0.703635 0
0.356309 0.666965 0
0.24951 0.782974 0
0.289009 0.779588 0
0.810542 0.362514 0
0.76432 0.338993 0
0.772204 0.381296 0
0.70942 0.286852 0
0.705431 0.332443 0
0.729969 0.312184 0
0.831184 0.106754 0
0.88081 0.111511 0
0.700748 0.430301 0
0.733534 0.397568 0
0.850584 0.326758 0
0.229212 0.186988 0
0.407496 0.52144 0
0.369845 0.506468 0
0.413594 0.760165 0
0.405497 0.719256 0
0.381051 0.749049 0
0.444574 0.794979 0
0.383872 0.640216 0
0.400517 0.681391 0
0.355233 0.0967005 0
0.42608 0.078274 0
0.379662 0.102076 0
0.055907 0.589708 0
0.0873405 0.613876 0
0.072862 0.718619 0
0.0918955 0.751177 0
0.105798 0.716711 0
0.234794 0.74574 0
0.213514 0.780928 0
0.143437 0.712141 0
0.72332 0.190623 0
0.744653 0.160332 0
0.788301 0.105758 0
0.748577 0.0986915 0
0.769527 0.134944 0
0.357928 0.894445 0
0.318709 0.915359 0
0.0802555 0.874244 0
0.121571 0.864297 0
0.32234 0.494638 0
0.349629 0.465863 0
0.384335 0.442641 0
0.336831 0.43081 0
0.608343 0.412069 0
0.527752 0.244716 0
0.858468 0.369061 0
0.627123 0.221367 0
0.382188 0.284319 0
0.345561 0.3138 0
0.437163 0.330315 0
0.746731 0.229689 0
0.149179 0.573985 0
0.720027 0.100984 0
0.810234 0.070501 0
0.861213 0.415162 0
0.827831 0.478851 0
0.85 0.5 0
0.082894 0.447232 0
0.0883665 0.492719 0
0.0578625 0.514002 0
0.300642 0.749391 0
0.351723 0.729569 0
0.321394 0.725064 0
0.416449 0.301103 0
0.462668 0.300384 0
0.837044 0.431259 0
</DataArray>
</Points>
<Cells>
<DataArray  type="UInt32"  Name="connectivity"  format="ascii">
1 138 139 
14 137 139 
45 137 138 
137 138 139 
4 141 142 
27 140 142 
65 140 141 
140 141 142 
0 144 145 
23 143 145 
43 143 144 
143 144 145 
4 141 147 
65 141 146 
105 146 147 
141 146 147 
5 149 150 
31 148 150 
47 148 149 
148 149 150 
2 152 153 
32 151 153 
44 151 152 
151 152 153 
2 152 155 
15 154 155 
44 152 154 
152 154 155 
15 154 157 
44 154 156 
101 156 157 
154 156 157 
6 159 160 
43 158 160 
93 158 159 
158 159 160 
15 162 163 
16 161 163 
71 161 162 
161 162 163 
6 159 165 
7 164 165 
93 159 164 
159 164 165 
[...]
<PointData  Vectors="u"> 
<DataArray  type="Float32"  Name="u"  NumberOfComponents="3" format="ascii">
 0.000000e+00 0.000000e+00 0.000000e+00
 0.000000e+00 0.000000e+00 0.000000e+00
 0.000000e+00 0.000000e+00 0.000000e+00
 0.000000e+00 0.000000e+00 0.000000e+00
 0.000000e+00 0.000000e+00 0.000000e+00
 0.000000e+00 0.000000e+00 0.000000e+00
 0.000000e+00 0.000000e+00 0.000000e+00
 0.000000e+00 0.000000e+00 0.000000e+00
 0.000000e+00 0.000000e+00 0.000000e+00
 0.000000e+00 0.000000e+00 0.000000e+00
 0.000000e+00 0.000000e+00 0.000000e+00
 0.000000e+00 0.000000e+00 0.000000e+00
 0.000000e+00 0.000000e+00 0.000000e+00
 0.000000e+00 0.000000e+00 0.000000e+00
 0.000000e+00 0.000000e+00 0.000000e+00
 0.000000e+00 0.000000e+00 0.000000e+00
 0.000000e+00 0.000000e+00 0.000000e+00
 0.000000e+00 0.000000e+00 0.000000e+00
 0.000000e+00 0.000000e+00 0.000000e+00
 0.000000e+00 0.000000e+00 0.000000e+00
 0.000000e+00 0.000000e+00 0.000000e+00
 0.000000e+00 0.000000e+00 0.000000e+00
 0.000000e+00 0.000000e+00 0.000000e+00
 0.000000e+00 0.000000e+00 0.000000e+00
 0.000000e+00 0.000000e+00 0.000000e+00
 0.000000e+00 0.000000e+00 0.000000e+00
 0.000000e+00 0.000000e+00 0.000000e+00
 0.000000e+00 0.000000e+00 0.000000e+00
 0.000000e+00 0.000000e+00 0.000000e+00
 0.000000e+00 0.000000e+00 0.000000e+00
 0.000000e+00 0.000000e+00 0.000000e+00
 0.000000e+00 0.000000e+00 0.000000e+00
 4.072038e-04 9.774839e-02 0.000000e+00
 9.425465e-04 1.923340e-02 0.000000e+00
 9.666888e-04 1.610166e-02 0.000000e+00
 4.722151e-04 9.500573e-02 0.000000e+00
 -9.057958e-02 8.607503e-03 0.000000e+00
 -1.253999e-02 1.852615e-02 0.000000e+00
 -2.151060e-02 1.996148e-02 0.000000e+00
 -1.037537e-01 1.028746e-02 0.000000e+00
 -8.730952e-03 -2.803234e-02 0.000000e+00
 -7.022476e-03 2.277565e-03 0.000000e+00
 -4.436245e-04 2.108704e-02 0.000000e+00
 -1.141748e-02 1.112456e-02 0.000000e+00
 6.530536e-05 9.661073e-02 0.000000e+00
 -9.794160e-02 4.579300e-03 0.000000e+00
 -1.019008e-01 3.227621e-03 0.000000e+00
 2.085179e-05 1.059009e-01 0.000000e+00
 -1.256406e-02 1.398803e-02 0.000000e+00
 -5.230688e-02 9.973898e-04 0.000000e+00
 3.487103e-03 2.853635e-02 0.000000e+00
 -2.709649e-03 2.013199e-02 0.000000e+00
 -3.185213e-02 2.263464e-02 0.000000e+00
 -2.577188e-02 -6.422325e-03 0.000000e+00
 -1.647167e-03 5.035931e-03 0.000000e+00
 -2.893849e-03 7.762155e-02 0.000000e+00
 -6.319167e-04 4.851630e-02 0.000000e+00
 -2.807431e-02 4.008142e-02 0.000000e+00
 -1.513810e-02 4.440661e-02 0.000000e+00
 -2.887186e-02 1.681224e-02 0.000000e+00
 -1.070867e-01 2.339296e-02 0.000000e+00
 -5.818517e-03 7.597909e-02 0.000000e+00
 -5.184109e-03 7.616561e-02 0.000000e+00
 -3.785892e-02 1.623567e-02 0.000000e+00
 -5.534325e-02 2.093668e-02 0.000000e+00
 -1.711699e-01 2.418595e-02 0.000000e+00
 -4.844651e-02 4.308849e-03 0.000000e+00
 1.211161e-02 -1.102007e-02 0.000000e+00
 -6.305506e-04 1.059383e-01 0.000000e+00
 -2.479395e-03 6.907445e-03 0.000000e+00
 -1.651061e-02 3.553381e-02 0.000000e+00
 -1.018970e-03 1.049499e-01 0.000000e+00
 -4.787384e-02 3.316584e-03 0.000000e+00
 -4.757752e-02 3.682196e-03 0.000000e+00
 -3.874422e-02 9.614416e-03 0.000000e+00
 -3.837869e-02 5.522218e-04 0.000000e+00
 -9.869430e-03 7.337175e-02 0.000000e+00
 -5.479456e-04 5.690690e-03 0.000000e+00
 -1.312212e-02 -2.824983e-03 0.000000e+00
 -8.167090e-03 7.288278e-02 0.000000e+00
 -1.395472e-02 -9.654917e-03 0.000000e+00
 -1.436488e-02 5.800546e-02 0.000000e+00
 -9.580012e-02 2.128053e-02 0.000000e+00
 1.802349e-02 4.161909e-03 0.000000e+00
 2.022298e-03 -2.615334e-02 0.000000e+00
 -1.188897e-02 4.528506e-02 0.000000e+00
 -4.386747e-03 5.007671e-03 0.000000e+00
 -6.840792e-03 3.040142e-02 0.000000e+00
 -8.481349e-04 2.267558e-02 0.000000e+00
 -8.700943e-02 6.058160e-03 0.000000e+00
 -1.331293e-01 1.307369e-02 0.000000e+00
 -2.003015e-02 -9.231164e-03 0.000000e+00
 -2.206498e-02 1.240286e-01 0.000000e+00
 -3.526669e-02 1.374637e-02 0.000000e+00
 -2.379921e-03 8.820282e-02 0.000000e+00
 -4.510758e-03 1.151576e-01 0.000000e+00
 -4.870577e-02 7.826189e-04 0.000000e+00
 -2.817398e-03 1.000751e-01 0.000000e+00
 -5.127298e-03 4.468232e-02 0.000000e+00
 -3.091801e-02 1.870495e-02 0.000000e+00
 -6.926461e-05 6.552290e-02 0.000000e+00
 -1.783011e-04 1.073870e-01 0.000000e+00
 -2.325557e-03 4.899914e-02 0.000000e+00
 -2.407059e-02 -1.117254e-02 0.000000e+00
 -1.884665e-02 9.954530e-03 0.000000e+00
 -1.156232e-01 4.668828e-02 0.000000e+00
 -1.709451e-01 1.148522e-02 0.000000e+00
 -3.957328e-02 9.816966e-03 0.000000e+00
 -5.257863e-02 2.767300e-02 0.000000e+00
 1.636121e-02 1.442884e-02 0.000000e+00
 -2.121830e-02 -2.324127e-02 0.000000e+00
 1.283598e-02 2.300140e-02 0.000000e+00
 -7.522814e-03 7.377520e-02 0.000000e+00
 -1.502323e-01 7.762406e-03 0.000000e+00
 -9.416975e-03 2.964990e-02 0.000000e+00
 -6.371928e-02 7.494625e-03 0.000000e+00
 -7.777869e-03 2.070185e-02 0.000000e+00
 -1.364891e-02 2.959629e-02 0.000000e+00
 -1.172785e-03 1.032537e-01 0.000000e+00
 -1.236799e-01 7.309654e-03 0.000000e+00
 -1.886424e-03 1.098091e-01 0.000000e+00
 -3.911400e-03 8.644146e-02 0.000000e+00
 -3.073196e-03 9.336117e-02 0.000000e+00
 -4.263284e-03 3.693372e-02 0.000000e+00
 -6.340786e-03 2.349113e-02 0.000000e+00
 -4.697869e-02 2.647238e-02 0.000000e+00
 -1.943318e-03 9.576526e-02 0.000000e+00
 -4.008165e-03 1.935960e-02 0.000000e+00
 -4.706760e-02 6.479391e-05 0.000000e+00
 -1.411270e-03 5.415734e-02 0.000000e+00
 -6.970000e-02 8.048670e-02 0.000000e+00
 -1.849939e-02 -2.751820e-02 0.000000e+00
 -7.424670e-02 6.727162e-03 0.000000e+00
 1.115133e-03 -2.029297e-02 0.000000e+00
 6.340065e-03 2.663163e-02 0.000000e+00
 -1.119413e-01 3.117243e-03 0.000000e+00
 1.888630e-03 -7.471774e-03 0.000000e+00
 -7.574915e-02 1.452955e-03 0.000000e+00
 -7.984038e-02 1.919936e-03 0.000000e+00
 0.000000e+00 0.000000e+00 0.000000e+00
 -1.714485e-01 1.275849e-02 0.000000e+00
 -1.840644e-01 4.273188e-02 0.000000e+00
 0.000000e+00 0.000000e+00 0.000000e+00
 -4.444045e-03 1.052784e-02 0.000000e+00
 -2.364804e-03 2.355657e-03 0.000000e+00
 0.000000e+00 0.000000e+00 0.000000e+00
 -1.580869e-01 4.233296e-02 0.000000e+00
 -1.623912e-01 9.578126e-02 0.000000e+00
 -3.610822e-05 7.991800e-02 0.000000e+00
 8.266177e-05 8.006984e-02 0.000000e+00
 0.000000e+00 0.000000e+00 0.000000e+00
 2.260460e-04 1.075725e-01 0.000000e+00
 6.502514e-05 6.379624e-02 0.000000e+00
 1.854563e-04 1.011940e-01 0.000000e+00
 -2.753011e-05 6.366730e-02 0.000000e+00
 0.000000e+00 0.000000e+00 0.000000e+00
 -1.914889e-05 1.065439e-01 0.000000e+00
 -1.180854e-04 9.110857e-02 0.000000e+00
 -2.356567e-02 1.403276e-02 0.000000e+00
 -2.127897e-02 5.547211e-03 0.000000e+00
 -1.040195e-02 4.246771e-03 0.000000e+00
 -4.361518e-04 9.155224e-02 0.000000e+00
 -2.692753e-04 9.223557e-02 0.000000e+00
 0.000000e+00 0.000000e+00 0.000000e+00
 -3.084905e-02 4.450240e-03 0.000000e+00
 0.000000e+00 0.000000e+00 0.000000e+00
 0.000000e+00 0.000000e+00 0.000000e+00
 -4.991734e-02 1.563146e-03 0.000000e+00
 -3.673342e-02 8.806383e-04 0.000000e+00
 -4.412265e-02 1.856700e-03 0.000000e+00
 -1.164524e-03 1.061972e-01 0.000000e+00
 -3.657753e-04 7.554661e-02 0.000000e+00
 -5.120059e-04 7.439258e-02 0.000000e+00
 0.000000e+00 0.000000e+00 0.000000e+00
 -2.720757e-02 2.516372e-02 0.000000e+00
 -1.523359e-02 2.319137e-02 0.000000e+00
 -4.094598e-02 3.407303e-03 0.000000e+00
 0.000000e+00 0.000000e+00 0.000000e+00
 -3.714299e-02 5.470172e-04 0.000000e+00
 0.000000e+00 0.000000e+00 0.000000e+00
 -4.512773e-02 1.131214e-03 0.000000e+00
 -4.449689e-02 6.431386e-04 0.000000e+00
 0.000000e+00 0.000000e+00 0.000000e+00
 -8.513255e-03 -3.869596e-03 0.000000e+00
 -3.067607e-02 -2.629888e-03 0.000000e+00
 -4.647447e-03 -1.099586e-02 0.000000e+00
 -4.603638e-02 1.529806e-03 0.000000e+00
 -4.309566e-02 1.217997e-03 0.000000e+00
 0.000000e+00 0.000000e+00 0.000000e+00
 -4.415070e-02 6.028426e-03 0.000000e+00
 -5.488192e-02 3.249268e-03 0.000000e+00
 -1.167322e-01 4.924352e-03 0.000000e+00
 -9.969226e-02 2.285365e-03 0.000000e+00
 -6.776684e-02 1.002635e-03 0.000000e+00
 -2.467584e-03 1.017131e-01 0.000000e+00
 -6.178565e-04 6.796568e-02 0.000000e+00
 -1.072774e-03 9.161999e-02 0.000000e+00
 -7.683721e-04 6.610252e-02 0.000000e+00
 0.000000e+00 0.000000e+00 0.000000e+00
 -1.441937e-02 -2.454603e-02 0.000000e+00
 -1.160157e-02 -3.071325e-02 0.000000e+00
 -1.220200e-02 -2.209926e-02 0.000000e+00
 -6.388866e-03 1.114835e-01 0.000000e+00
 -4.569415e-02 1.342441e-01 0.000000e+00
 0.000000e+00 0.000000e+00 0.000000e+00
 -9.372901e-03 1.197707e-01 0.000000e+00
 -1.832512e-03 9.621297e-02 0.000000e+00
 -2.825631e-03 1.124256e-01 0.000000e+00
 -7.423502e-04 8.312699e-02 0.000000e+00
 -1.182606e-03 9.204859e-02 0.000000e+00
 -5.400441e-04 8.187102e-02 0.000000e+00
 0.000000e+00 0.000000e+00 0.000000e+00
 3.674994e-04 3.248993e-02 0.000000e+00
 2.136393e-04 7.488020e-02 0.000000e+00
 7.124689e-04 5.715575e-02 0.000000e+00
 -1.232764e-01 5.099379e-03 0.000000e+00
 -6.981808e-02 9.284263e-04 0.000000e+00
 -1.132782e-01 6.701159e-03 0.000000e+00
 -6.435810e-02 1.598653e-03 0.000000e+00
 -1.038434e-01 4.460727e-03 0.000000e+00
 -5.180060e-02 8.829681e-03 0.000000e+00
 -6.175133e-02 2.506275e-03 0.000000e+00
 -6.021598e-02 3.766538e-03 0.000000e+00
 -1.460861e-01 1.058703e-02 0.000000e+00
 -1.035032e-01 2.437883e-03 0.000000e+00
 -1.253095e-01 4.379157e-03 0.000000e+00
 -6.897979e-02 7.217042e-03 0.000000e+00
 -6.139325e-02 2.222131e-03 0.000000e+00
 0.000000e+00 0.000000e+00 0.000000e+00
 -1.099286e-01 2.654386e-03 0.000000e+00
 0.000000e+00 0.000000e+00 0.000000e+00
 -1.258378e-03 6.550900e-02 0.000000e+00
 -1.027813e-03 6.820188e-02 0.000000e+00
 0.000000e+00 0.000000e+00 0.000000e+00
 -5.649009e-03 9.109069e-02 0.000000e+00
 -4.795862e-03 9.361678e-02 0.000000e+00
 -6.939197e-03 7.459971e-02 0.000000e+00
 -1.548094e-04 8.907887e-02 0.000000e+00
 -3.699241e-04 9.008657e-02 0.000000e+00
 0.000000e+00 0.000000e+00 0.000000e+00
 -9.001953e-03 7.698582e-02 0.000000e+00
 -2.781096e-03 5.937483e-02 0.000000e+00
 -4.530172e-03 7.821800e-02 0.000000e+00
 -8.385978e-03 2.071418e-02 0.000000e+00
 -3.533604e-03 2.026714e-02 0.000000e+00
 -2.462753e-02 1.718554e-02 0.000000e+00
 -1.399373e-01 4.866687e-03 0.000000e+00
 -1.307168e-01 3.937225e-03 0.000000e+00
 0.000000e+00 0.000000e+00 0.000000e+00
 -3.089330e-03 5.357090e-02 0.000000e+00
 0.000000e+00 0.000000e+00 0.000000e+00
 -6.146649e-03 4.761537e-02 0.000000e+00
 -5.316799e-03 5.619895e-02 0.000000e+00
 0.000000e+00 0.000000e+00 0.000000e+00
 4.986411e-04 9.891398e-03 0.000000e+00
 5.188294e-04 4.994028e-03 0.000000e+00
 1.042136e-03 3.498421e-03 0.000000e+00
 3.765928e-04 8.133827e-02 0.000000e+00
 5.733468e-04 3.767995e-02 0.000000e+00
 7.488200e-04 5.284518e-02 0.000000e+00
 -9.847225e-02 6.661989e-03 0.000000e+00
 -9.942175e-02 3.631257e-03 0.000000e+00
 -7.639628e-02 1.765697e-03 0.000000e+00
 -7.197267e-02 1.993326e-03 0.000000e+00
 0.000000e+00 0.000000e+00 0.000000e+00
 1.216990e-02 2.785251e-02 0.000000e+00
 1.548853e-02 2.301732e-02 0.000000e+00
 -3.893723e-03 2.713299e-02 0.000000e+00
 -7.752727e-03 2.119212e-02 0.000000e+00
 -2.502620e-03 2.066224e-02 0.000000e+00
 -8.199242e-06 9.541326e-02 0.000000e+00
 2.723082e-04 1.043725e-01 0.000000e+00
 2.065531e-04 1.011515e-01 0.000000e+00
 -8.163268e-03 -2.066737e-02 0.000000e+00
 -1.118149e-02 -1.943488e-02 0.000000e+00
 -3.645940e-03 -2.952193e-02 0.000000e+00
 -1.929746e-02 -3.321764e-03 0.000000e+00
 -1.388897e-02 -1.273656e-02 0.000000e+00
 -9.771964e-03 4.197835e-03 0.000000e+00
 -7.502193e-03 7.514181e-03 0.000000e+00
 -9.712352e-03 5.767975e-04 0.000000e+00
 -7.648842e-02 1.013057e-02 0.000000e+00
 -6.643366e-02 1.177891e-02 0.000000e+00
 -7.036095e-02 2.375468e-02 0.000000e+00
 -2.131295e-02 2.450912e-02 0.000000e+00
 -4.055081e-02 2.188724e-02 0.000000e+00
 -8.115784e-02 1.491477e-02 0.000000e+00
 -3.551472e-02 1.982199e-02 0.000000e+00
 -6.241897e-02 1.626004e-02 0.000000e+00
 -5.294768e-03 1.182590e-02 0.000000e+00
 -6.820919e-03 6.976839e-03 0.000000e+00
 -5.579694e-03 3.008467e-03 0.000000e+00
 -4.964360e-04 9.068757e-02 0.000000e+00
 -2.498088e-04 1.065674e-01 0.000000e+00
 -1.511601e-02 1.280594e-03 0.000000e+00
 -2.136493e-02 -6.025251e-03 0.000000e+00
 -4.877864e-02 4.792799e-03 0.000000e+00
 -6.220595e-03 2.193690e-02 0.000000e+00
 -5.607380e-03 3.315955e-02 0.000000e+00
 0.000000e+00 0.000000e+00 0.000000e+00
 -4.786910e-02 1.408605e-02 0.000000e+00
 -1.999315e-02 3.851302e-02 0.000000e+00
 -2.470681e-02 1.853040e-02 0.000000e+00
 -2.306544e-02 4.026006e-02 0.000000e+00
 -8.820943e-04 5.611468e-03 0.000000e+00
 -1.815009e-02 1.527565e-02 0.000000e+00
 1.134466e-02 1.310904e-02 0.000000e+00
 1.797897e-02 -4.727949e-03 0.000000e+00
 1.697159e-02 4.522282e-03 0.000000e+00
 9.293101e-03 -1.951509e-03 0.000000e+00
 -3.768342e-04 8.423324e-02 0.000000e+00
 1.681513e-04 1.038470e-01 0.000000e+00
 -1.048631e-03 2.316607e-02 0.000000e+00
 -2.048612e-03 3.552948e-02 0.000000e+00
 -1.655477e-03 1.130328e-02 0.000000e+00
 -4.613682e-03 3.102525e-02 0.000000e+00
 -5.240542e-03 7.704789e-03 0.000000e+00
 -5.984850e-03 1.513855e-02 0.000000e+00
 -9.185694e-03 7.375015e-02 0.000000e+00
 -1.051750e-02 4.251022e-02 0.000000e+00
 -1.168313e-02 4.528931e-02 0.000000e+00
 -1.860142e-02 -6.552460e-03 0.000000e+00
 -1.547019e-02 -1.136557e-02 0.000000e+00
 -1.299959e-02 -2.874190e-04 0.000000e+00
 -1.021025e-01 7.323562e-02 0.000000e+00
 -1.067454e-01 1.331426e-01 0.000000e+00
 -9.308925e-02 5.125206e-03 0.000000e+00
 0.000000e+00 0.000000e+00 0.000000e+00
 -9.966876e-02 1.466887e-02 0.000000e+00
 -1.138551e-01 8.716347e-03 0.000000e+00
 -3.494397e-02 1.775006e-02 0.000000e+00
 -2.295400e-03 2.510645e-02 0.000000e+00
 -5.798536e-03 2.316367e-02 0.000000e+00
 -8.984540e-03 5.168212e-02 0.000000e+00
 -1.098620e-02 2.172198e-02 0.000000e+00
 -3.123717e-03 3.283094e-02 0.000000e+00
 -3.545667e-03 4.600279e-02 0.000000e+00
 -2.661555e-03 6.347572e-02 0.000000e+00
 -1.361442e-02 1.155452e-02 0.000000e+00
 -1.861390e-02 4.492296e-02 0.000000e+00
 -1.867853e-02 7.720393e-03 0.000000e+00
 -1.759943e-02 2.330582e-02 0.000000e+00
 1.011048e-03 2.575180e-02 0.000000e+00
 -1.678759e-02 2.679457e-02 0.000000e+00
 -7.738348e-03 1.650718e-02 0.000000e+00
 -3.309656e-03 2.083172e-02 0.000000e+00
 -3.396964e-02 1.337483e-02 0.000000e+00
 -2.820597e-02 3.042500e-02 0.000000e+00
 -1.399083e-02 2.980411e-02 0.000000e+00
 9.746023e-04 3.086045e-02 0.000000e+00
 4.775466e-03 -2.553430e-02 0.000000e+00
 1.207063e-02 -1.680408e-02 0.000000e+00
 8.366837e-03 -1.989638e-02 0.000000e+00
 -1.062013e-01 1.693768e-02 0.000000e+00
 -1.140645e-01 2.000793e-02 0.000000e+00
 -3.542660e-02 3.702641e-04 0.000000e+00
 -2.089961e-02 -1.020840e-02 0.000000e+00
 -4.109390e-02 -1.072237e-03 0.000000e+00
 -4.840848e-02 4.083795e-04 0.000000e+00
 -4.204919e-02 6.754818e-04 0.000000e+00
 -1.517282e-02 -5.629086e-04 0.000000e+00
 -1.723359e-02 2.537776e-02 0.000000e+00
 -1.502421e-02 1.547152e-02 0.000000e+00
 2.016904e-02 1.004882e-02 0.000000e+00
 9.424011e-03 9.148052e-03 0.000000e+00
 -1.546997e-03 3.399879e-03 0.000000e+00
 -2.637972e-03 4.595642e-03 0.000000e+00
 -3.407043e-03 6.260247e-02 0.000000e+00
 -3.451710e-03 2.790406e-02 0.000000e+00
 -2.756456e-03 5.161607e-02 0.000000e+00
 -4.153673e-03 7.630556e-02 0.000000e+00
 -5.542385e-03 6.082031e-02 0.000000e+00
 -4.214197e-03 8.979604e-02 0.000000e+00
 -5.884813e-04 1.107408e-02 0.000000e+00
 -4.535246e-02 9.466461e-03 0.000000e+00
 -3.703023e-02 2.117855e-02 0.000000e+00
 -4.088129e-02 1.054275e-02 0.000000e+00
 -1.560910e-02 4.869578e-02 0.000000e+00
 -2.726653e-02 3.412754e-02 0.000000e+00
 -1.731000e-03 8.195538e-02 0.000000e+00
 -1.881454e-03 9.411447e-02 0.000000e+00
 -2.452080e-03 2.293934e-02 0.000000e+00
 -1.507056e-03 4.880236e-02 0.000000e+00
 -1.523580e-03 2.283362e-02 0.000000e+00
 1.513720e-02 1.923164e-02 0.000000e+00
 -5.925606e-03 1.353309e-02 0.000000e+00
 -4.240489e-02 2.229263e-03 0.000000e+00
 -2.076394e-02 1.810275e-03 0.000000e+00
 -2.732482e-02 4.928493e-03 0.000000e+00
 -1.640802e-02 8.639011e-02 0.000000e+00
 -3.020856e-02 8.683000e-02 0.000000e+00
 -8.939057e-02 1.751590e-02 0.000000e+00
 -6.679938e-02 2.084782e-03 0.000000e+00
 0.000000e+00 0.000000e+00 0.000000e+00
 -1.789288e-02 9.131110e-03 0.000000e+00
 -1.396065e-02 7.937595e-03 0.000000e+00
 -1.290854e-02 2.116620e-02 0.000000e+00
 -1.404087e-02 9.519176e-04 0.000000e+00
 -1.048184e-02 6.726613e-02 0.000000e+00
 -1.229144e-02 6.603050e-02 0.000000e+00
 -1.565210e-02 5.569564e-02 0.000000e+00
 -1.978655e-03 7.145934e-02 0.000000e+00
 -1.083636e-03 8.597015e-02 0.000000e+00
 -1.363748e-03 9.938891e-02 0.000000e+00
 -2.045450e-02 -2.645059e-02 0.000000e+00
 -2.952499e-02 -1.736311e-02 0.000000e+00
 -3.711767e-02 -1.224633e-02 0.000000e+00
 -6.359858e-03 3.200919e-02 0.000000e+00
 -6.948525e-03 4.706751e-02 0.000000e+00
 -1.757190e-03 5.849903e-02 0.000000e+00
 -1.429469e-03 6.193964e-02 0.000000e+00
 0.000000e+00 0.000000e+00 0.000000e+00
 -8.656029e-03 2.501855e-02 0.000000e+00
 -1.081598e-02 5.644047e-03 0.000000e+00
 -2.323496e-02 -2.006251e-02 0.000000e+00
 -1.607821e-02 -1.997810e-02 0.000000e+00
 -1.248265e-02 5.284306e-02 0.000000e+00
 -1.445838e-02 3.758348e-02 0.000000e+00
 -1.251578e-02 5.900682e-02 0.000000e+00
 -8.711346e-03 2.323222e-02 0.000000e+00
 6.737573e-03 2.858706e-02 0.000000e+00
 -1.479060e-01 1.844957e-02 0.000000e+00
 -1.486115e-01 1.753764e-02 0.000000e+00
 -1.031262e-01 2.319798e-02 0.000000e+00
 1.513885e-03 -1.413798e-02 0.000000e+00
 1.446003e-02 -1.121256e-02 0.000000e+00
 -6.813370e-02 1.743321e-02 0.000000e+00
 -1.375885e-01 1.900317e-02 0.000000e+00
 -6.277951e-03 -1.634266e-02 0.000000e+00
 -5.879362e-02 3.258287e-03 0.000000e+00
 -7.679021e-02 2.793331e-02 0.000000e+00
 0.000000e+00 0.000000e+00 0.000000e+00
 -9.223955e-03 1.176507e-02 0.000000e+00
 -8.428800e-03 3.349344e-02 0.000000e+00
 -6.031911e-03 4.777999e-02 0.000000e+00
 -7.897868e-03 6.118647e-02 0.000000e+00
 -3.386095e-03 3.323971e-03 0.000000e+00
 -3.543680e-03 1.083947e-02 0.000000e+00
 -9.836237e-02 2.143672e-02 0.000000e+00
 -7.856187e-02 2.622955e-02 0.000000e+00
 -1.247686e-01 1.900499e-02 0.000000e+00
 -2.417091e-02 2.896242e-02 0.000000e+00
 -7.738491e-02 2.611107e-02 0.000000e+00
 -5.030603e-02 2.863589e-02 0.000000e+00
 -6.397575e-02 1.211756e-02 0.000000e+00
 -6.816940e-02 1.153053e-02 0.000000e+00
 -1.614818e-01 9.504069e-03 0.000000e+00
 -1.462266e-01 1.609730e-02 0.000000e+00
 -5.414422e-02 2.465452e-02 0.000000e+00
 -2.906052e-02 6.185394e-03 0.000000e+00
 -5.001793e-02 1.153629e-01 0.000000e+00
 -4.459713e-02 6.251750e-02 0.000000e+00
 -2.309128e-03 1.047757e-01 0.000000e+00
 -3.575977e-03 1.021899e-01 0.000000e+00
 -3.549654e-03 8.240338e-02 0.000000e+00
 -9.841893e-04 1.056057e-01 0.000000e+00
 -9.216058e-03 8.919543e-02 0.000000e+00
 -5.314963e-03 1.008417e-01 0.000000e+00
 -4.212907e-02 -1.522129e-03 0.000000e+00
 -4.310139e-02 -4.044770e-05 0.000000e+00
 -3.806726e-02 -2.443373e-03 0.000000e+00
 -2.478155e-03 9.494167e-02 0.000000e+00
 -3.915644e-03 9.665724e-02 0.000000e+00
 -1.882008e-03 1.041853e-01 0.000000e+00
 -2.098091e-03 1.000018e-01 0.000000e+00
 -2.979246e-03 9.118884e-02 0.000000e+00
 -4.244790e-03 4.960143e-03 0.000000e+00
 -3.271291e-03 1.210393e-02 0.000000e+00
 -3.935064e-03 6.109673e-02 0.000000e+00
 9.734531e-03 2.544281e-02 0.000000e+00
 -7.215965e-03 2.217403e-02 0.000000e+00
 -5.715759e-02 1.277507e-02 0.000000e+00
 -5.551528e-02 1.182683e-02 0.000000e+00
 -2.989224e-02 1.816759e-02 0.000000e+00
 -7.026352e-04 5.977804e-02 0.000000e+00
 -2.737542e-04 2.747338e-02 0.000000e+00
 -5.688681e-04 1.063859e-01 0.000000e+00
 -1.042900e-03 8.183470e-02 0.000000e+00
 -2.888862e-02 1.110193e-02 0.000000e+00
 -4.214474e-02 2.159160e-02 0.000000e+00
 -6.427963e-02 3.819797e-02 0.000000e+00
 -3.461723e-02 -4.199714e-03 0.000000e+00
 -1.775923e-01 1.579461e-02 0.000000e+00
 1.148429e-02 -1.681493e-03 0.000000e+00
 -9.693047e-02 1.819302e-02 0.000000e+00
 1.774751e-02 1.779039e-02 0.000000e+00