<?xml version="1.0"?>
<VTKFile type="UnstructuredGrid"  version="0.1"  >
<UnstructuredGrid>
<Piece  NumberOfPoints="505" NumberOfCells="928">
<Points>
<DataArray  type="Float32"  NumberOfComponents="3"  format="ascii">
0 0 0
1 0 0
0 1 0
1 0.5 0
0.5 0.5 0
0.5 1 0
0.1 0 0
0.2 0 0
0.3 0 0
0.4 0 0
0.5 0 0
0.6 0 0
0.7 0 0
0.8 0 0
0.9 0 0
0 0.9 0
0 0.8 0
0 0.7 0
0 0.6 0
0 0.5 0
0 0.4 0
0 0.3 0
0 0.2 0
0 0.1 0
0.9 0.5 0
0.8 0.5 0
0.7 0.5 0
0.6 0.5 0
0.5 0.6 0
0.5 0.7 0
0.5 0.8 0
0.5 0.9 0
0.1 1 0
0.2 1 0
0.3 1 0
0.4 1 0
1 0.1 0
1 0.2 0
1 0.3 0
1 0.4 0
0.300178 0.296564 0
0.247566 0.664879 0
0.639694 0.259804 0
0.06564 0.06472 0
0.04439 0.954144 0
0.932418 0.064715 0
0.951013 0.456419 0
0.437622 0.939659 0
0.195334 0.464441 0
0.483382 0.329596 0
0.834786 0.236295 0
0.307228 0.81139 0
0.178229 0.173372 0
0.366998 0.134199 0
0.547485 0.14214 0
0.124832 0.74927 0
0.160163 0.896658 0
0.342556 0.535243 0
0.147651 0.342018 0
0.729803 0.127878 0
0.725981 0.357775 0
0.121369 0.600441 0
0.372954 0.70814 0
0.908503 0.151525 0
0.89851 0.333305 0
0.556275 0.400898 0
0.259184 0.092178 0
0.46329 0.194362 0
0.423773 0.869712 0
0.22823 0.818162 0
0.081292 0.144905 0
0.082979 0.831935 0
0.549999 0.065419 0
0.371537 0.407588 0
0.642628 0.097865 0
0.459835 0.086595 0
0.108565 0.418567 0
0.273082 0.902112 0
0.256598 0.556659 0
0.11951 0.509541 0
0.234147 0.370527 0
0.097453 0.253261 0
0.638438 0.342389 0
0.554656 0.224779 0
0.373432 0.237603 0
0.339663 0.62579 0
0.27079 0.747786 0
0.733958 0.266592 0
0.928527 0.244458 0
0.853116 0.071497 0
0.818426 0.404817 0
0.280194 0.200604 0
0.417859 0.565185 0
0.147241 0.079056 0
0.389149 0.789957 0
0.42808 0.654642 0
0.343469 0.059202 0
0.086765 0.684153 0
0.162043 0.675011 0
0.809252 0.14201 0
0.364337 0.928607 0
0.077532 0.916553 0
0.159064 0.807906 0
0.302124 0.454032 0
0.205909 0.272176 0
0.449664 0.407415 0
0.66041 0.423241 0
0.562201 0.303789 0
0.802658 0.320211 0
0.614551 0.182931 0
0.390944 0.331035 0
0.687136 0.18846 0
0.070577 0.342498 0
0.741087 0.437361 0
0.176989 0.547528 0
0.710251 0.07409 0
0.192845 0.608574 0
0.171114 0.398277 0
0.058959 0.753084 0
0.904 0.425508 0
0.438039 0.730373 0
0.057223 0.475897 0
0.058502 0.552106 0
0.330493 0.750997 0
0.312295 0.699131 0
0.684882 0.307111 0
0.053312 0.627311 0
0.198798 0.743695 0
0.392326 0.069953 0
0.351519 0.860283 0
0.397134 0.477694 0
0.319385 0.371198 0
0.767351 0.069505 0
0.441954 0.271171 0
0.759504 0.192785 0
0.855661 0.457701 0
0.500847 0.264652 0
0.916209 0.0323575 0
0.966209 0.0323575 0
0.95 0 0
0.578137 0.450449 0
0.528137 0.450449 0
0.55 0.5 0
0.03282 0.08236 0
0.03282 0.03236 0
0 0.05 0
0.502969 0.404157 0
0.474832 0.453708 0
0.468811 0.91983 0
0.468811 0.96983 0
0.5 0.95 0
0.072195 0.977072 0
0.022195 0.977072 0
0.05 1 0
0.022195 0.927072 0
0 0.95 0
0.060961 0.935348 0
0.038766 0.908276 0
0.106441 0.071888 0
0.123621 0.039528 0
0.08282 0.03236 0
0.0414895 0.815967 0
0.0414895 0.865968 0
0 0.85 0
0.173621 0.039528 0
0.15 0 0
0.05 0 0
0.301327 0.07569 0
0.321735 0.029601 0
0.279592 0.046089 0
0.070969 0.792509 0
0.0294795 0.776542 0
0.0294795 0.726542 0
0 0.75 0
0.114267 0.111981 0
0.073466 0.104813 0
0.229592 0.046089 0
0.25 0 0
0.371735 0.029601 0
0.35 0 0
0.479917 0.0432975 0
0.429918 0.0432975 0
0.45 0 0
0.461562 0.140479 0
0.413416 0.110397 0
0.415144 0.16428 0
0.574999 0.0327095 0
0.525 0.0327095 0
0.55 0 0
0.596313 0.081642 0
0.621314 0.0489325 0
0.927507 0.440964 0
0.902 0.462754 0
0.925507 0.47821 0
0.0700385 0.655732 0
0.026656 0.663655 0
0.0433825 0.692076 0
0.026656 0.613655 0
0 0.65 0
0.276766 0.370862 0
0.309781 0.333881 0
0.267162 0.333545 0
0.458929 0.582593 0
0.458929 0.532593 0
0.5 0.55 0
0.422969 0.609913 0
0.46404 0.627321 0
0.43306 0.692508 0
0.46902 0.715186 0
0.46404 0.677321 0
0.46902 0.765186 0
0.5 0.75 0
0.180082 0.948329 0
0.130082 0.948329 0
0.15 1 0
0.87983 0.441605 0
0.87783 0.478851 0
0.975507 0.42821 0
0.975507 0.47821 0
1 0.45 0
0.676439 0.0859775 0
0.705125 0.037045 0
0.671314 0.0489325 0
0.779756 0.421089 0
0.770544 0.46868 0
0.809213 0.452408 0
0.738801 0.0717975 0
0.733675 0.0347525 0
0.95 0.5 0
0.720544 0.46868 0
0.75 0.5 0
0.029251 0.526053 0
0.029251 0.576053 0
0 0.55 0
0.089006 0.530824 0
0.0899355 0.576273 0
0.12044 0.554991 0
0.461886 0.884856 0
0.461886 0.834856 0
0.5 0.85 0
0.089571 0.380533 0
0.0352885 0.371249 0
0.0542825 0.409284 0
0.918515 0.197991 0
0.964263 0.222229 0
0.954252 0.175762 0
0.630205 0.46162 0
0.680205 0.46162 0
0.65 0.5 0
0.0352885 0.321249 0
0 0.35 0
0.0487265 0.226631 0
0.0487265 0.276631 0
0 0.25 0
0.286541 0.951056 0
0.236541 0.951056 0
0.25 1 0
0.382169 0.964303 0
0.332168 0.964303 0
0.35 1 0
0.966209 0.0823575 0
1 0.05 0
0.876558 0.0357485 0
0.826558 0.0357485 0
0.85 0 0
0.710547 0.227526 0
0.663415 0.224132 0
0.686826 0.263198 0
0.964263 0.272229 0
1 0.25 0
0.40098 0.934133 0
0.418811 0.96983 0
0.45 1 0
0.326813 0.219104 0
0.290186 0.248584 0
0.336805 0.267084 0
0.243052 0.23639 0
0.253043 0.28437 0
0.224721 0.582616 0
0.220205 0.636726 0
0.252082 0.610769 0
0.92046 0.10812 0
0.954252 0.125762 0
0.66166 0.32475 0
0.662288 0.283458 0
0.639066 0.301096 0
0.949255 0.366653 0
0.949255 0.316653 0
1 0.35 0
0.291542 0.723459 0
0.27993 0.682005 0
0.259178 0.706333 0
0.394055 0.89916 0
0.430698 0.904686 0
0.531524 0.28422 0
0.492115 0.297124 0
0.522791 0.316692 0
0.040646 0.122453 0
0.040646 0.172453 0
0 0.15 0
1 0.15 0
0.151681 0.262718 0
0.192069 0.222774 0
0.137841 0.213317 0
0.558428 0.264284 0
0.600947 0.281797 0
0.597175 0.242291 0
0.508973 0.20957 0
0.551071 0.183459 0
0.505387 0.168251 0
0.118847 0.906605 0
0.088766 0.958276 0
0.3123 0.881198 0
0.329373 0.835836 0
0.290155 0.856751 0
0.18042 0.709353 0
0.223182 0.704287 0
0.204805 0.669945 0
0.114037 0.464054 0
0.157422 0.486991 0
0.15195 0.441504 0
0.279361 0.505346 0
0.248729 0.459236 0
0.225966 0.51055 0
0.423399 0.442555 0
0.448567 0.488847 0
0.892767 0.068106 0
0.65 0 0
0.901255 0.379406 0
0.952 0.412754 0
0.858877 0.146767 0
0.822019 0.189153 0
0.871644 0.19391 0
0.14825 0.528535 0
0.186162 0.505985 0
0.178931 0.775801 0
0.161815 0.746482 0
0.141948 0.778588 0
0.29813 0.591225 0
0.34111 0.580516 0
0.299577 0.545951 0
0.913519 0.288882 0
0.881657 0.240376 0
0.866648 0.2848 0
0.664882 0.143162 0
0.708469 0.158169 0
0.686215 0.112871 0
0.768308 0.293401 0
0.818722 0.278253 0
0.784372 0.251443 0
0.407693 0.254387 0
0.452622 0.232766 0
0.418361 0.215983 0
0.559238 0.352343 0
0.519829 0.365247 0
0.269689 0.146391 0
0.323596 0.167402 0
0.313091 0.113188 0
0.367897 0.0645775 0
0.396163 0.0349765 0
0.220028 0.321352 0
0.17678 0.307097 0
0.190899 0.356272 0
0.584604 0.203855 0
0.581018 0.162535 0
0.250656 0.860137 0
0.267729 0.814776 0
0.359821 0.770477 0
0.31886 0.781193 0
0.348189 0.800674 0
0.124404 0.679582 0
0.141706 0.637726 0
0.104067 0.642297 0
0.216622 0.899385 0
0.203213 0.085617 0
0.162735 0.126214 0
0.218707 0.132775 0
0.0893725 0.199083 0
0.129761 0.159139 0
0.121022 0.819921 0
0.103905 0.790602 0
0.193647 0.813034 0
0.159614 0.852282 0
0.194196 0.85741 0
0.650843 0.185696 0
0.628589 0.140398 0
0.504917 0.076007 0
0.50366 0.114367 0
0.548742 0.103779 0
0.378761 0.595487 0
0.380208 0.550214 0
0.466523 0.368506 0
0.783675 0.0347525 0
0.75 0 0
0.595056 0.120002 0
0.20263 0.384402 0
0.183224 0.431359 0
0.214741 0.417484 0
0.084015 0.29788 0
0.109114 0.342258 0
0.122552 0.29764 0
0.370334 0.82512 0
0.387646 0.864998 0
0.406461 0.829835 0
0.355164 0.351116 0
0.345461 0.389393 0
0.38124 0.369312 0
0.177444 0.641792 0
0.157107 0.604507 0
0.0286115 0.437949 0
0.0286115 0.487949 0
0 0.45 0
0.184917 0.578051 0
0.216794 0.552094 0
0.310754 0.412615 0
0.268135 0.41228 0
0.13984 0.408422 0
0.159382 0.370147 0
0.128108 0.380293 0
0.784378 0.167398 0
0.797145 0.21454 0
0.649424 0.382815 0
0.693196 0.390508 0
0.682209 0.350082 0
0.471401 0.267911 0
0.482069 0.229507 0
0.600319 0.323089 0
0.597356 0.371644 0
0.370215 0.185901 0
0.420304 0.369225 0
0.410601 0.407502 0
0.5 0.65 0
0.293615 0.645334 0
0.325979 0.66246 0
0.342624 0.703635 0
0.356309 0.666965 0
0.24951 0.782974 0
0.289009 0.779588 0
0.810542 0.362514 0
0.76432 0.338993 0
0.772204 0.381296 0
0.70942 0.286852 0
0.705431 0.332443 0
0.729969 0.312184 0
0.831184 0.106754 0
0.88081 0.111511 0
0.700748 0.430301 0
0.733534 0.397568 0
0.850584 0.326758 0
0.229212 0.186988 0
0.407496 0.52144 0
0.369845 0.506468 0
0.413594 0.760165 0
0.405497 0.719256 0
0.381051 0.749049 0
0.444574 0.794979 0
0.383872 0.640216 0
0.400517 0.681391 0
0.355233 0.0967005 0
0.42608 0.078274 0
0.379662 0.102076 0
0.055907 0.589708 0
0.0873405 0.613876 0
0.072862 0.718619 0
0.0918955 0.751177 0
0.105798 0.716711 0
0.234794 0.74574 0
0.213514 0.780928 0
0.143437 0.712141 0
0.72332 0.190623 0
0.744653 0.160332 0
0.788301 0.105758 0
0.748577 0.0986915 0
0.769527 0.134944 0
0.357928 0.894445 0
0.318709 0.915359 0
0.0802555 0.874244 0
0.121571 0.864297 0
0.32234 0.494638 0
0.349629 0.465863 0
0.384335 0.442641 0
0.336831 0.43081 0
0.608343 0.412069 0
0.527752 0.244716 0
0.858468 0.369061 0
0.627123 0.221367 0
0.382188 0.284319 0
0.345561 0.3138 0
0.437163 0.330315 0
0.746731 0.229689 0
0.149179 0.573985 0
0.720027 0.100984 0
0.810234 0.070501 0
0.861213 0.415162 0
0.827831 0.478851 0
0.85 0.5 0
0.082894 0.447232 0
0.0883665 0.492719 0
0.0578625 0.514002 0
0.300642 0.749391 0
0.351723 0.729569 0
0.321394 0.725064 0
0.416449 0.301103 0
0.462668 0.300384 0
0.837044 0.431259 0
</DataArray>
</Points>
<Cells>
<DataArray  type="UInt32"  Name="connectivity"  format="ascii">
1 138 139 
14 137 139 
45 137 138 
137 138 139 
4 141 142 
27 140 142 
65 140 141 
140 141 142 
0 144 145 
23 143 145 
43 143 144 
143 144 145 
4 141 147 
65 141 146 
105 146 147 
141 146 147 
5 149 150 
31 148 150 
47 148 149 
148 149 150 
2 152 153 
32 151 153 
44 151 152 
151 152 153 
2 152 155 
15 154 155 
44 152 154 
152 154 155 
15 154 157 
44 154 156 
101 156 157 
154 156 157 
6 159 160 
43 158 160 
93 158 159 
158 159 160 
15 162 163 
16 161 163 
71 161 162 
161 162 163 
6 159 165 
7 164 165 
93 159 164 
159 164 165 
[...]
<PointData  Vectors="u"> 
<DataArray  type="Float32"  Name="u"  NumberOfComponents="3" format="ascii">
 0.000000e+00 0.000000e+00 0.000000e+00
 0.000000e+00 0.000000e+00 0.000000e+00
 0.000000e+00 0.000000e+00 0.000000e+00
 0.000000e+00 0.000000e+00 0.000000e+00
 0.000000e+00 0.000000e+00 0.000000e+00
 0.000000e+00 0.000000e+00 0.000000e+00
 0.000000e+00 0.000000e+00 0.000000e+00
 0.000000e+00 0.000000e+00 0.000000e+00
 0.000000e+00 0.000000e+00 0.000000e+00
 0.000000e+00 0.000000e+00 0.000000e+00
 0.000000e+00 0.000000e+00 0.000000e+00
 0.000000e+00 0.000000e+00 0.000000e+00
 0.000000e+00 0.000000e+00 0.000000e+00
 0.000000e+00 0.000000e+00 0.000000e+00
 0.000000e+00 0.000000e+00 0.000000e+00
 0.000000e+00 0.000000e+00 0.000000e+00
 0.000000e+00 0.000000e+00 0.000000e+00
 0.000000e+00 0.000000e+00 0.000000e+00
 0.000000e+00 0.000000e+00 0.000000e+00
 0.000000e+00 0.000000e+00 0.000000e+00
 0.000000e+00 0.000000e+00 0.000000e+00
 0.000000e+00 0.000000e+00 0.000000e+00
 0.000000e+00 0.000000e+00 0.000000e+00
 0.000000e+00 0.000000e+00 0.000000e+00
 0.000000e+00 0.000000e+00 0.000000e+00
 0.000000e+00 0.000000e+00 0.000000e+00
 0.000000e+00 0.000000e+00 0.000000e+00
 0.000000e+00 0.000000e+00 0.000000e+00
 0.000000e+00 0.000000e+00 0.000000e+00
 0.000000e+00 0.000000e+00 0.000000e+00
 0.000000e+00 0.000000e+00 0.000000e+00
 0.000000e+00 0.000000e+00 0.000000e+00
 3.095950e-05 -1.238865e-02 0.000000e+00
 5.577372e-05 -1.261430e-02 0.000000e+00
 5.315001e-05 -1.284007e-02 0.000000e+00
 3.070615e-05 -1.296777e-02 0.000000e+00
 1.239437e-02 -2.720481e-05 0.000000e+00
 1.260807e-02 -5.045675e-05 0.000000e+00
 1.283719e-02 -5.439662e-05 0.000000e+00
 1.296574e-02 -3.644779e-05 0.000000e+00
 6.231001e-03 -6.127498e-03 0.000000e+00
 1.568200e-03 -1.239636e-02 0.000000e+00
 1.240503e-02 -1.876029e-03 0.000000e+00
 1.017855e-03 -1.002086e-03 0.000000e+00
 2.243131e-05 -1.118632e-02 0.000000e+00
 1.193035e-02 -4.674216e-05 0.000000e+00
 1.178891e-02 -2.862516e-05 0.000000e+00
 5.089793e-05 -1.255417e-02 0.000000e+00
 3.010715e-03 -9.607590e-03 0.000000e+00
 1.181412e-02 -5.606439e-03 0.000000e+00
 1.264487e-02 -4.550909e-04 0.000000e+00
 5.522536e-04 -1.294131e-02 0.000000e+00
 3.438625e-03 -3.331169e-03 0.000000e+00
 7.383985e-03 -2.321765e-03 0.000000e+00
 1.046316e-02 -1.594721e-03 0.000000e+00
 5.090003e-04 -1.201019e-02 0.000000e+00
 2.012652e-04 -1.247945e-02 0.000000e+00
 4.468937e-03 -1.315524e-02 0.000000e+00
 2.621201e-03 -6.875944e-03 0.000000e+00
 1.193627e-02 -5.911818e-04 0.000000e+00
 1.343330e-02 -9.474513e-04 0.000000e+00
 1.077507e-03 -1.096559e-02 0.000000e+00
 1.041015e-03 -1.364335e-02 0.000000e+00
 1.246728e-02 -1.696209e-04 0.000000e+00
 1.294923e-02 -2.280850e-04 0.000000e+00
 1.527139e-02 -4.037920e-03 0.000000e+00
 5.034667e-03 -1.595711e-03 0.000000e+00
 9.514405e-03 -2.941326e-03 0.000000e+00
 1.468710e-04 -1.288590e-02 0.000000e+00
 5.121929e-04 -1.259922e-02 0.000000e+00
 1.388003e-03 -2.699986e-03 0.000000e+00
 1.792344e-04 -1.199416e-02 0.000000e+00
 9.867855e-03 -6.242857e-04 0.000000e+00
 8.290707e-03 -9.811176e-03 0.000000e+00
 1.111937e-02 -6.869628e-04 0.000000e+00
 8.843643e-03 -1.158955e-03 0.000000e+00
 1.615306e-03 -8.288716e-03 0.000000e+00
 2.408791e-04 -1.277700e-02 0.000000e+00
 2.957815e-03 -1.169624e-02 0.000000e+00
 1.487573e-03 -9.831523e-03 0.000000e+00
 4.428728e-03 -7.850149e-03 0.000000e+00
 1.692302e-03 -4.916350e-03 0.000000e+00
 1.358771e-02 -2.060541e-03 0.000000e+00
 1.126804e-02 -2.565866e-03 0.000000e+00
 7.900220e-03 -4.458221e-03 0.000000e+00
 2.282345e-03 -1.353280e-02 0.000000e+00
 9.224946e-04 -1.275133e-02 0.000000e+00
 1.271266e-02 -1.005918e-03 0.000000e+00
 1.270409e-02 -1.741534e-04 0.000000e+00
 1.192308e-02 -1.313888e-04 0.000000e+00
 1.322844e-02 -3.145799e-04 0.000000e+00
 5.673203e-03 -3.858440e-03 0.000000e+00
 3.425941e-03 -1.581789e-02 0.000000e+00
 2.746184e-03 -1.343194e-03 0.000000e+00
 4.538399e-04 -1.332191e-02 0.000000e+00
 1.061521e-03 -1.434670e-02 0.000000e+00
 6.455551e-03 -8.624615e-04 0.000000e+00
 4.908008e-04 -1.146267e-02 0.000000e+00
 1.020020e-03 -1.180012e-02 0.000000e+00
 1.227818e-02 -3.851503e-04 0.000000e+00
 1.315054e-04 -1.298639e-02 0.000000e+00
 7.809899e-05 -1.220807e-02 0.000000e+00
 4.309507e-04 -1.232688e-02 0.000000e+00
 5.322915e-03 -1.050583e-02 0.000000e+00
 3.999284e-03 -5.489479e-03 0.000000e+00
 1.249084e-02 -9.479605e-03 0.000000e+00
 1.430525e-02 -1.066385e-03 0.000000e+00
 1.259648e-02 -3.368113e-03 0.000000e+00
 1.301095e-02 -5.791864e-04 0.000000e+00
 1.149471e-02 -1.568496e-03 0.000000e+00
 8.942823e-03 -6.912172e-03 0.000000e+00
 1.202665e-02 -1.097708e-03 0.000000e+00
 1.065685e-03 -6.599039e-03 0.000000e+00
 1.326017e-02 -3.867500e-04 0.000000e+00
 2.055557e-03 -1.071959e-02 0.000000e+00
 1.151023e-02 -3.517221e-04 0.000000e+00
 1.713225e-03 -1.152659e-02 0.000000e+00
 2.914321e-03 -8.160148e-03 0.000000e+00
 2.063512e-04 -1.133617e-02 0.000000e+00
 1.291625e-02 -1.023704e-04 0.000000e+00
 4.198935e-04 -1.331479e-02 0.000000e+00
 6.537331e-04 -8.682015e-03 0.000000e+00
 5.371767e-04 -9.746245e-03 0.000000e+00
 8.540459e-04 -1.316081e-02 0.000000e+00
 1.327648e-03 -1.308951e-02 0.000000e+00
 1.304698e-02 -1.457377e-03 0.000000e+00
 3.492137e-04 -1.036454e-02 0.000000e+00
 8.128718e-04 -1.231482e-02 0.000000e+00
 7.601267e-03 -9.961055e-04 0.000000e+00
 3.127022e-04 -1.304180e-02 0.000000e+00
 8.043173e-03 -1.367068e-02 0.000000e+00
 6.636759e-03 -8.251275e-03 0.000000e+00
 1.161387e-02 -2.328409e-04 0.000000e+00
 9.797083e-03 -4.776531e-03 0.000000e+00
 1.233626e-02 -7.107297e-04 0.000000e+00
 1.185562e-02 -7.726635e-05 0.000000e+00
 1.098263e-02 -3.855188e-03 0.000000e+00
 9.789258e-03 -2.499546e-05 0.000000e+00
 9.861697e-03 -9.841896e-06 0.000000e+00
 0.000000e+00 0.000000e+00 0.000000e+00
 1.537374e-02 -2.037650e-03 0.000000e+00
 1.674474e-02 -6.252680e-03 0.000000e+00
 0.000000e+00 0.000000e+00 0.000000e+00
 4.514053e-04 -1.096257e-03 0.000000e+00
 3.856754e-04 -3.820186e-04 0.000000e+00
 0.000000e+00 0.000000e+00 0.000000e+00
 1.480981e-02 -7.281687e-03 0.000000e+00
 1.515079e-02 -1.197251e-02 0.000000e+00
 2.588548e-05 -1.026994e-02 0.000000e+00
 1.566210e-05 -1.026796e-02 0.000000e+00
 0.000000e+00 0.000000e+00 0.000000e+00
 2.367954e-05 -1.207686e-02 0.000000e+00
 6.738449e-06 -8.459362e-03 0.000000e+00
 1.012462e-05 -1.149818e-02 0.000000e+00
 2.387590e-05 -8.369784e-03 0.000000e+00
 0.000000e+00 0.000000e+00 0.000000e+00
 4.630850e-05 -1.188061e-02 0.000000e+00
 5.150512e-05 -1.086695e-02 0.000000e+00
 1.823665e-03 -1.187902e-03 0.000000e+00
 1.938953e-03 -5.411905e-04 0.000000e+00
 1.100635e-03 -4.428745e-04 0.000000e+00
 7.533681e-05 -1.029647e-02 0.000000e+00
 6.165366e-05 -1.041843e-02 0.000000e+00
 0.000000e+00 0.000000e+00 0.000000e+00
 2.847888e-03 -5.779588e-04 0.000000e+00
 0.000000e+00 0.000000e+00 0.000000e+00
 0.000000e+00 0.000000e+00 0.000000e+00
 5.900996e-03 -1.197333e-03 0.000000e+00
 4.934618e-03 -3.952781e-04 0.000000e+00
 4.765405e-03 -6.299123e-04 0.000000e+00
 1.997650e-04 -1.173147e-02 0.000000e+00
 7.181930e-05 -9.229941e-03 0.000000e+00
 1.041014e-04 -9.018645e-03 0.000000e+00
 0.000000e+00 0.000000e+00 0.000000e+00
 2.095321e-03 -2.046236e-03 0.000000e+00
 1.218335e-03 -1.794444e-03 0.000000e+00
 3.932072e-03 -6.715146e-04 0.000000e+00
 0.000000e+00 0.000000e+00 0.000000e+00
 5.504608e-03 -3.396904e-04 0.000000e+00
 0.000000e+00 0.000000e+00 0.000000e+00
 7.902100e-03 -4.480132e-04 0.000000e+00
 7.210266e-03 -4.795921e-04 0.000000e+00
 0.000000e+00 0.000000e+00 0.000000e+00
 9.169377e-03 -2.044570e-03 0.000000e+00
 8.266505e-03 -1.758246e-03 0.000000e+00
 8.455771e-03 -2.684398e-03 0.000000e+00
 8.427105e-03 -2.425426e-04 0.000000e+00
 7.903967e-03 -2.988393e-04 0.000000e+00
 0.000000e+00 0.000000e+00 0.000000e+00
 1.055779e-02 -6.798929e-04 0.000000e+00
 9.676589e-03 -3.045693e-04 0.000000e+00
 1.253286e-02 -5.401744e-05 0.000000e+00
 1.140554e-02 -4.272598e-05 0.000000e+00
 8.827998e-03 -1.839860e-05 0.000000e+00
 4.299283e-04 -1.100928e-02 0.000000e+00
 1.303535e-04 -8.351322e-03 0.000000e+00
 2.040596e-04 -1.041570e-02 0.000000e+00
 1.549663e-04 -8.019672e-03 0.000000e+00
 0.000000e+00 0.000000e+00 0.000000e+00
 5.508601e-03 -8.086081e-03 0.000000e+00
 6.478160e-03 -7.188409e-03 0.000000e+00
 5.322416e-03 -7.004674e-03 0.000000e+00
 1.607849e-03 -1.487167e-02 0.000000e+00
 5.559081e-03 -1.682652e-02 0.000000e+00
 0.000000e+00 0.000000e+00 0.000000e+00
 1.883698e-03 -1.512710e-02 0.000000e+00
 6.532135e-04 -1.287357e-02 0.000000e+00
 6.488134e-04 -1.377633e-02 0.000000e+00
 2.108397e-04 -1.100717e-02 0.000000e+00
 3.569121e-04 -1.195390e-02 0.000000e+00
 1.565004e-04 -1.078032e-02 0.000000e+00
 0.000000e+00 0.000000e+00 0.000000e+00
 1.085899e-04 -1.256015e-02 0.000000e+00
 8.249655e-05 -1.246095e-02 0.000000e+00
 4.496435e-05 -1.251234e-02 0.000000e+00
 1.259774e-02 -9.515039e-05 0.000000e+00
 8.769249e-03 -2.802480e-05 0.000000e+00
 1.271682e-02 -2.963139e-05 0.000000e+00
 8.878424e-03 -9.692720e-06 0.000000e+00
 1.211344e-02 -1.446015e-05 0.000000e+00
 1.134562e-02 -4.794723e-04 0.000000e+00
 1.019097e-02 -1.885983e-04 0.000000e+00
 9.931147e-03 -2.553547e-04 0.000000e+00
 1.328318e-02 -3.594540e-04 0.000000e+00
 1.075392e-02 -1.351773e-04 0.000000e+00
 1.235283e-02 -1.522245e-04 0.000000e+00
 1.155792e-02 -2.937203e-04 0.000000e+00
 9.487211e-03 -1.274046e-04 0.000000e+00
 0.000000e+00 0.000000e+00 0.000000e+00
 1.103663e-02 -1.983512e-04 0.000000e+00
 0.000000e+00 0.000000e+00 0.000000e+00
 2.351717e-04 -7.542330e-03 0.000000e+00
 1.987761e-04 -7.961050e-03 0.000000e+00
 0.000000e+00 0.000000e+00 0.000000e+00
 9.720228e-04 -9.967900e-03 0.000000e+00
 8.405256e-04 -1.050424e-02 0.000000e+00
 1.279024e-03 -1.044176e-02 0.000000e+00
 4.679415e-05 -1.094161e-02 0.000000e+00
 9.194244e-05 -1.118892e-02 0.000000e+00
 0.000000e+00 0.000000e+00 0.000000e+00
 1.340108e-03 -7.438018e-03 0.000000e+00
 4.731584e-04 -5.982844e-03 0.000000e+00
 7.280043e-04 -7.556504e-03 0.000000e+00
 1.258839e-02 -1.834839e-04 0.000000e+00
 1.265680e-02 -9.064914e-05 0.000000e+00
 1.254929e-02 -9.106918e-05 0.000000e+00
 1.314936e-02 -7.067388e-04 0.000000e+00
 1.214608e-02 -3.716608e-04 0.000000e+00
 0.000000e+00 0.000000e+00 0.000000e+00
 4.889264e-04 -5.226741e-03 0.000000e+00
 0.000000e+00 0.000000e+00 0.000000e+00
 7.138272e-04 -3.920658e-03 0.000000e+00
 6.835505e-04 -4.778364e-03 0.000000e+00
 0.000000e+00 0.000000e+00 0.000000e+00
 1.146239e-04 -1.280823e-02 0.000000e+00
 1.192453e-04 -1.268555e-02 0.000000e+00
 5.809364e-05 -1.272990e-02 0.000000e+00
 6.076961e-05 -1.298422e-02 0.000000e+00
 8.284576e-05 -1.291136e-02 0.000000e+00
 4.391126e-05 -1.294105e-02 0.000000e+00
 1.222093e-02 -3.500760e-05 0.000000e+00
 1.152064e-02 -1.162276e-05 0.000000e+00
 1.002763e-02 -4.624827e-05 0.000000e+00
 9.961039e-03 -6.704119e-05 0.000000e+00
 0.000000e+00 0.000000e+00 0.000000e+00
 1.238633e-02 -1.109946e-03 0.000000e+00
 1.218455e-02 -1.439558e-03 0.000000e+00
 1.258852e-02 -1.388482e-03 0.000000e+00
 1.277384e-02 -9.564240e-05 0.000000e+00
 1.272130e-02 -5.460295e-05 0.000000e+00
 8.924691e-05 -1.297772e-02 0.000000e+00
 3.737126e-05 -1.283098e-02 0.000000e+00
 1.577072e-05 -1.212561e-02 0.000000e+00
 6.786218e-03 -4.185920e-03 0.000000e+00
 5.956188e-03 -4.986225e-03 0.000000e+00
 7.128234e-03 -5.332071e-03 0.000000e+00
 4.846773e-03 -4.699798e-03 0.000000e+00
 5.088483e-03 -5.829073e-03 0.000000e+00
 2.232177e-03 -1.159591e-02 0.000000e+00
 1.688224e-03 -1.196038e-02 0.000000e+00
 2.185836e-03 -1.218658e-02 0.000000e+00
 1.235017e-02 -1.010539e-04 0.000000e+00
 1.245075e-02 -6.936320e-05 0.000000e+00
 1.325772e-02 -1.708286e-03 0.000000e+00
 1.278425e-02 -1.672244e-03 0.000000e+00
 1.294048e-02 -2.064587e-03 0.000000e+00
 1.298103e-02 -9.479181e-05 0.000000e+00
 1.288379e-02 -1.121815e-04 0.000000e+00
 1.293713e-02 -4.949125e-05 0.000000e+00
 1.126451e-03 -1.289239e-02 0.000000e+00
 1.484799e-03 -1.278843e-02 0.000000e+00
 1.205281e-03 -1.261629e-02 0.000000e+00
 1.532545e-04 -1.303735e-02 0.000000e+00
 8.950336e-05 -1.274343e-02 0.000000e+00
 1.178514e-02 -3.706209e-03 0.000000e+00
 1.134599e-02 -4.601860e-03 0.000000e+00
 1.240041e-02 -4.396446e-03 0.000000e+00
 5.599239e-04 -1.932164e-03 0.000000e+00
 6.010849e-04 -2.840761e-03 0.000000e+00
 0.000000e+00 0.000000e+00 0.000000e+00
 1.251002e-02 -4.172648e-05 0.000000e+00
 2.859825e-03 -5.213090e-03 0.000000e+00
 3.712546e-03 -4.404723e-03 0.000000e+00
 2.573762e-03 -4.159161e-03 0.000000e+00
 1.185835e-02 -2.964748e-03 0.000000e+00
 1.249323e-02 -2.520338e-03 0.000000e+00
 1.192336e-02 -2.269506e-03 0.000000e+00
 1.047740e-02 -2.801915e-03 0.000000e+00
 1.079893e-02 -2.110014e-03 0.000000e+00
 1.004148e-02 -2.200932e-03 0.000000e+00
 1.335206e-04 -1.238699e-02 0.000000e+00
 5.246375e-05 -1.233150e-02 0.000000e+00
 2.938546e-04 -1.291148e-02 0.000000e+00
 4.241270e-04 -1.300627e-02 0.000000e+00
 3.910139e-04 -1.284682e-02 0.000000e+00
 9.336461e-04 -1.208976e-02 0.000000e+00
 1.126029e-03 -1.233105e-02 0.000000e+00
 1.291835e-03 -1.205314e-02 0.000000e+00
 1.616717e-03 -9.117935e-03 0.000000e+00
 2.160303e-03 -9.671645e-03 0.000000e+00
 2.310417e-03 -8.926633e-03 0.000000e+00
 4.054450e-03 -1.122313e-02 0.000000e+00
 4.058486e-03 -9.974440e-03 0.000000e+00
 3.153254e-03 -1.064502e-02 0.000000e+00
 1.079630e-02 -1.217918e-02 0.000000e+00
 1.068172e-02 -1.619897e-02 0.000000e+00
 1.196355e-02 -8.572515e-05 0.000000e+00
 0.000000e+00 0.000000e+00 0.000000e+00
 1.304410e-02 -1.677079e-04 0.000000e+00
 1.296178e-02 -6.580777e-05 0.000000e+00
 1.239218e-02 -2.766262e-04 0.000000e+00
 1.245365e-02 -4.387691e-04 0.000000e+00
 1.253551e-02 -3.013618e-04 0.000000e+00
 1.798956e-03 -1.028169e-02 0.000000e+00
 2.491368e-03 -1.025282e-02 0.000000e+00
 5.974476e-04 -1.231577e-02 0.000000e+00
 6.711543e-04 -1.214417e-02 0.000000e+00
 4.744945e-04 -1.218564e-02 0.000000e+00
 2.741181e-03 -1.267460e-02 0.000000e+00
 3.270684e-03 -1.349219e-02 0.000000e+00
 3.683117e-03 -1.231563e-02 0.000000e+00
 1.281611e-02 -2.111805e-04 0.000000e+00
 1.268212e-02 -2.948740e-04 0.000000e+00
 1.282031e-02 -3.528498e-04 0.000000e+00
 1.163750e-02 -9.538658e-04 0.000000e+00
 1.194926e-02 -8.233661e-04 0.000000e+00
 1.163233e-02 -6.684160e-04 0.000000e+00
 1.290454e-02 -7.816726e-04 0.000000e+00
 1.281952e-02 -5.378778e-04 0.000000e+00
 1.267673e-02 -6.972703e-04 0.000000e+00
 8.886185e-03 -4.683801e-03 0.000000e+00
 9.632473e-03 -3.864236e-03 0.000000e+00
 8.742999e-03 -3.679781e-03 0.000000e+00
 1.369440e-02 -3.847944e-03 0.000000e+00
 1.355088e-02 -5.352740e-03 0.000000e+00
 5.392983e-03 -2.728287e-03 0.000000e+00
 6.544666e-03 -3.060754e-03 0.000000e+00
 6.216568e-03 -2.018669e-03 0.000000e+00
 7.047668e-03 -9.460959e-04 0.000000e+00
 6.704412e-03 -4.402557e-04 0.000000e+00
 4.266971e-03 -6.624198e-03 0.000000e+00
 3.273950e-03 -6.234123e-03 0.000000e+00
 3.510484e-03 -7.273441e-03 0.000000e+00
 1.140414e-02 -2.016333e-03 0.000000e+00
 1.102940e-02 -1.599882e-03 0.000000e+00
 3.738653e-04 -1.270050e-02 0.000000e+00
 5.491969e-04 -1.276656e-02 0.000000e+00
 6.713636e-04 -1.327561e-02 0.000000e+00
 6.960402e-04 -1.304523e-02 0.000000e+00
 5.392353e-04 -1.314380e-02 0.000000e+00
 7.596919e-04 -1.163222e-02 0.000000e+00
 1.065080e-03 -1.142459e-02 0.000000e+00
 7.542370e-04 -1.127089e-02 0.000000e+00
 2.348967e-04 -1.262178e-02 0.000000e+00
 3.851110e-03 -1.471306e-03 0.000000e+00
 3.125550e-03 -2.306032e-03 0.000000e+00
 4.271524e-03 -2.469276e-03 0.000000e+00
 1.544009e-03 -3.776522e-03 0.000000e+00
 2.381475e-03 -3.047661e-03 0.000000e+00
 3.093530e-04 -1.224720e-02 0.000000e+00
 3.217158e-04 -1.207439e-02 0.000000e+00
 4.826964e-04 -1.245261e-02 0.000000e+00
 3.124695e-04 -1.240963e-02 0.000000e+00
 3.431293e-04 -1.253223e-02 0.000000e+00
 1.178325e-02 -1.322672e-03 0.000000e+00
 1.133695e-02 -1.143894e-03 0.000000e+00
 9.442053e-03 -8.589286e-04 0.000000e+00
 9.720696e-03 -1.466993e-03 0.000000e+00
 1.025991e-02 -1.087691e-03 0.000000e+00
 2.794111e-03 -1.449252e-02 0.000000e+00
 4.318108e-03 -1.451106e-02 0.000000e+00
 1.222981e-02 -7.193484e-03 0.000000e+00
 9.748892e-03 -9.017724e-05 0.000000e+00
 0.000000e+00 0.000000e+00 0.000000e+00
 1.087860e-02 -1.097389e-03 0.000000e+00
 3.579605e-03 -8.040933e-03 0.000000e+00
 2.971884e-03 -8.810087e-03 0.000000e+00
 3.783350e-03 -8.856909e-03 0.000000e+00
 1.354744e-03 -5.852895e-03 0.000000e+00
 1.809510e-03 -6.785796e-03 0.000000e+00
 2.211789e-03 -5.949695e-03 0.000000e+00
 3.856151e-04 -1.315969e-02 0.000000e+00
 2.393809e-04 -1.309511e-02 0.000000e+00
 2.654568e-04 -1.311417e-02 0.000000e+00
 7.762007e-03 -7.669729e-03 0.000000e+00
 7.407940e-03 -8.966331e-03 0.000000e+00
 8.808741e-03 -8.378527e-03 0.000000e+00
 1.339301e-03 -1.166917e-02 0.000000e+00
 1.415556e-03 -1.123010e-02 0.000000e+00
 3.399859e-04 -6.559457e-03 0.000000e+00
 2.697320e-04 -7.032569e-03 0.000000e+00
 0.000000e+00 0.000000e+00 0.000000e+00
 1.905182e-03 -1.115372e-02 0.000000e+00
 2.513158e-03 -1.109799e-02 0.000000e+00
 6.081665e-03 -9.360711e-03 0.000000e+00
 4.909214e-03 -9.084812e-03 0.000000e+00
 2.310555e-03 -8.223408e-03 0.000000e+00
 2.805671e-03 -7.570666e-03 0.000000e+00
 2.092821e-03 -7.596840e-03 0.000000e+00
 1.230182e-02 -5.385039e-04 0.000000e+00
 1.250634e-02 -5.976531e-04 0.000000e+00
 1.415392e-02 -1.677460e-03 0.000000e+00
 1.387175e-02 -1.060309e-03 0.000000e+00
 1.356815e-02 -1.408978e-03 0.000000e+00
 1.043348e-02 -4.316887e-03 0.000000e+00
 1.024628e-02 -3.454495e-03 0.000000e+00
 1.322749e-02 -2.755693e-03 0.000000e+00
 1.424019e-02 -2.770798e-03 0.000000e+00
 7.638153e-03 -3.343092e-03 0.000000e+00
 1.038026e-02 -8.048525e-03 0.000000e+00
 1.005160e-02 -9.881715e-03 0.000000e+00
 0.000000e+00 0.000000e+00 0.000000e+00
 1.967076e-03 -1.282769e-02 0.000000e+00
 1.697857e-03 -1.326067e-02 0.000000e+00
 1.227729e-03 -1.338280e-02 0.000000e+00
 1.557078e-03 -1.369651e-02 0.000000e+00
 7.024330e-04 -1.266281e-02 0.000000e+00
 7.251763e-04 -1.286582e-02 0.000000e+00
 1.317009e-02 -4.680182e-04 0.000000e+00
 1.317491e-02 -7.438201e-04 0.000000e+00
 1.336848e-02 -5.758100e-04 0.000000e+00
 1.286914e-02 -1.236843e-03 0.000000e+00
 1.326132e-02 -1.231892e-03 0.000000e+00
 1.306122e-02 -1.017599e-03 0.000000e+00
 1.221355e-02 -2.466488e-04 0.000000e+00
 1.231969e-02 -1.697784e-04 0.000000e+00
 1.373055e-02 -6.294575e-04 0.000000e+00
 1.360858e-02 -6.845013e-04 0.000000e+00
 1.297747e-02 -3.876228e-04 0.000000e+00
 4.545659e-03 -3.590865e-03 0.000000e+00
 6.228961e-03 -1.556339e-02 0.000000e+00
 5.943835e-03 -1.348370e-02 0.000000e+00
 4.565270e-04 -1.339827e-02 0.000000e+00
 7.318720e-04 -1.372609e-02 0.000000e+00
 7.016888e-04 -1.348097e-02 0.000000e+00
 2.160110e-04 -1.271373e-02 0.000000e+00
 1.796602e-03 -1.425221e-02 0.000000e+00
 1.114437e-03 -1.403162e-02 0.000000e+00
 6.944552e-03 -1.551314e-03 0.000000e+00
 8.163894e-03 -1.066250e-03 0.000000e+00
 7.573460e-03 -1.576562e-03 0.000000e+00
 4.442562e-04 -1.011524e-02 0.000000e+00
 6.791506e-04 -1.087554e-02 0.000000e+00
 3.213452e-04 -1.147071e-02 0.000000e+00
 3.528925e-04 -1.185224e-02 0.000000e+00
 5.217385e-04 -1.177518e-02 0.000000e+00
 8.934197e-04 -1.252594e-02 0.000000e+00
 6.611035e-04 -1.247985e-02 0.000000e+00
 7.325772e-04 -1.191575e-02 0.000000e+00
 1.220862e-02 -8.889911e-04 0.000000e+00
 1.213899e-02 -6.691793e-04 0.000000e+00
 1.207805e-02 -3.281552e-04 0.000000e+00
 1.190440e-02 -3.990019e-04 0.000000e+00
 1.212752e-02 -4.839331e-04 0.000000e+00
 2.147676e-04 -1.300954e-02 0.000000e+00
 1.871270e-04 -1.290081e-02 0.000000e+00
 1.206359e-04 -1.210708e-02 0.000000e+00
 2.141079e-04 -1.232315e-02 0.000000e+00
 5.092465e-03 -1.194105e-02 0.000000e+00
 6.547762e-03 -1.177179e-02 0.000000e+00
 8.376913e-03 -1.146188e-02 0.000000e+00
 6.810174e-03 -1.034573e-02 0.000000e+00
 1.503345e-02 -2.098902e-03 0.000000e+00
 1.112790e-02 -3.187822e-03 0.000000e+00
 1.309609e-02 -2.896154e-04 0.000000e+00
 1.191550e-02 -1.766853e-03 0.000000e+00