<?xml version="1.0"?>
<VTKFile type="UnstructuredGrid"  version="0.1"  >
<UnstructuredGrid>
<Piece  NumberOfPoints="505" NumberOfCells="928">
<Points>
<DataArray  type="Float32"  NumberOfComponents="3"  format="ascii">
0 0 0
1 0 0
0 1 0
1 0.5 0
0.5 0.5 0
0.5 1 0
0.1 0 0
0.2 0 0
0.3 0 0
0.4 0 0
0.5 0 0
0.6 0 0
0.7 0 0
0.8 0 0
0.9 0 0
0 0.9 0
0 0.8 0
0 0.7 0
0 0.6 0
0 0.5 0
0 0.4 0
0 0.3 0
0 0.2 0
0 0.1 0
0.9 0.5 0
0.8 0.5 0
0.7 0.5 0
0.6 0.5 0
0.5 0.6 0
0.5 0.7 0
0.5 0.8 0
0.5 0.9 0
0.1 1 0
0.2 1 0
0.3 1 0
0.4 1 0
1 0.1 0
1 0.2 0
1 0.3 0
1 0.4 0
0.300178 0.296564 0
0.247566 0.664879 0
0.639694 0.259804 0
0.06564 0.06472 0
0.04439 0.954144 0
0.932418 0.064715 0
0.951013 0.456419 0
0.437622 0.939659 0
0.195334 0.464441 0
0.483382 0.329596 0
0.834786 0.236295 0
0.307228 0.81139 0
0.178229 0.173372 0
0.366998 0.134199 0
0.547485 0.14214 0
0.124832 0.74927 0
0.160163 0.896658 0
0.342556 0.535243 0
0.147651 0.342018 0
0.729803 0.127878 0
0.725981 0.357775 0
0.121369 0.600441 0
0.372954 0.70814 0
0.908503 0.151525 0
0.89851 0.333305 0
0.556275 0.400898 0
0.259184 0.092178 0
0.46329 0.194362 0
0.423773 0.869712 0
0.22823 0.818162 0
0.081292 0.144905 0
0.082979 0.831935 0
0.549999 0.065419 0
0.371537 0.407588 0
0.642628 0.097865 0
0.459835 0.086595 0
0.108565 0.418567 0
0.273082 0.902112 0
0.256598 0.556659 0
0.11951 0.509541 0
0.234147 0.370527 0
0.097453 0.253261 0
0.638438 0.342389 0
0.554656 0.224779 0
0.373432 0.237603 0
0.339663 0.62579 0
0.27079 0.747786 0
0.733958 0.266592 0
0.928527 0.244458 0
0.853116 0.071497 0
0.818426 0.404817 0
0.280194 0.200604 0
0.417859 0.565185 0
0.147241 0.079056 0
0.389149 0.789957 0
0.42808 0.654642 0
0.343469 0.059202 0
0.086765 0.684153 0
0.162043 0.675011 0
0.809252 0.14201 0
0.364337 0.928607 0
0.077532 0.916553 0
0.159064 0.807906 0
0.302124 0.454032 0
0.205909 0.272176 0
0.449664 0.407415 0
0.66041 0.423241 0
0.562201 0.303789 0
0.802658 0.320211 0
0.614551 0.182931 0
0.390944 0.331035 0
0.687136 0.18846 0
0.070577 0.342498 0
0.741087 0.437361 0
0.176989 0.547528 0
0.710251 0.07409 0
0.192845 0.608574 0
0.171114 0.398277 0
0.058959 0.753084 0
0.904 0.425508 0
0.438039 0.730373 0
0.057223 0.475897 0
0.058502 0.552106 0
0.330493 0.750997 0
0.312295 0.699131 0
0.684882 0.307111 0
0.053312 0.627311 0
0.198798 0.743695 0
0.392326 0.069953 0
0.351519 0.860283 0
0.397134 0.477694 0
0.319385 0.371198 0
0.767351 0.069505 0
0.441954 0.271171 0
0.759504 0.192785 0
0.855661 0.457701 0
0.500847 0.264652 0
0.916209 0.0323575 0
0.966209 0.0323575 0
0.95 0 0
0.578137 0.450449 0
0.528137 0.450449 0
0.55 0.5 0
0.03282 0.08236 0
0.03282 0.03236 0
0 0.05 0
0.502969 0.404157 0
0.474832 0.453708 0
0.468811 0.91983 0
0.468811 0.96983 0
0.5 0.95 0
0.072195 0.977072 0
0.022195 0.977072 0
0.05 1 0
0.022195 0.927072 0
0 0.95 0
0.060961 0.935348 0
0.038766 0.908276 0
0.106441 0.071888 0
0.123621 0.039528 0
0.08282 0.03236 0
0.0414895 0.815967 0
0.0414895 0.865968 0
0 0.85 0
0.173621 0.039528 0
0.15 0 0
0.05 0 0
0.301327 0.07569 0
0.321735 0.029601 0
0.279592 0.046089 0
0.070969 0.792509 0
0.0294795 0.776542 0
0.0294795 0.726542 0
0 0.75 0
0.114267 0.111981 0
0.073466 0.104813 0
0.229592 0.046089 0
0.25 0 0
0.371735 0.029601 0
0.35 0 0
0.479917 0.0432975 0
0.429918 0.0432975 0
0.45 0 0
0.461562 0.140479 0
0.413416 0.110397 0
0.415144 0.16428 0
0.574999 0.0327095 0
0.525 0.0327095 0
0.55 0 0
0.596313 0.081642 0
0.621314 0.0489325 0
0.927507 0.440964 0
0.902 0.462754 0
0.925507 0.47821 0
0.0700385 0.655732 0
0.026656 0.663655 0
0.0433825 0.692076 0
0.026656 0.613655 0
0 0.65 0
0.276766 0.370862 0
0.309781 0.333881 0
0.267162 0.333545 0
0.458929 0.582593 0
0.458929 0.532593 0
0.5 0.55 0
0.422969 0.609913 0
0.46404 0.627321 0
0.43306 0.692508 0
0.46902 0.715186 0
0.46404 0.677321 0
0.46902 0.765186 0
0.5 0.75 0
0.180082 0.948329 0
0.130082 0.948329 0
0.15 1 0
0.87983 0.441605 0
0.87783 0.478851 0
0.975507 0.42821 0
0.975507 0.47821 0
1 0.45 0
0.676439 0.0859775 0
0.705125 0.037045 0
0.671314 0.0489325 0
0.779756 0.421089 0
0.770544 0.46868 0
0.809213 0.452408 0
0.738801 0.0717975 0
0.733675 0.0347525 0
0.95 0.5 0
0.720544 0.46868 0
0.75 0.5 0
0.029251 0.526053 0
0.029251 0.576053 0
0 0.55 0
0.089006 0.530824 0
0.0899355 0.576273 0
0.12044 0.554991 0
0.461886 0.884856 0
0.461886 0.834856 0
0.5 0.85 0
0.089571 0.380533 0
0.0352885 0.371249 0
0.0542825 0.409284 0
0.918515 0.197991 0
0.964263 0.222229 0
0.954252 0.175762 0
0.630205 0.46162 0
0.680205 0.46162 0
0.65 0.5 0
0.0352885 0.321249 0
0 0.35 0
0.0487265 0.226631 0
0.0487265 0.276631 0
0 0.25 0
0.286541 0.951056 0
0.236541 0.951056 0
0.25 1 0
0.382169 0.964303 0
0.332168 0.964303 0
0.35 1 0
0.966209 0.0823575 0
1 0.05 0
0.876558 0.0357485 0
0.826558 0.0357485 0
0.85 0 0
0.710547 0.227526 0
0.663415 0.224132 0
0.686826 0.263198 0
0.964263 0.272229 0
1 0.25 0
0.40098 0.934133 0
0.418811 0.96983 0
0.45 1 0
0.326813 0.219104 0
0.290186 0.248584 0
0.336805 0.267084 0
0.243052 0.23639 0
0.253043 0.28437 0
0.224721 0.582616 0
0.220205 0.636726 0
0.252082 0.610769 0
0.92046 0.10812 0
0.954252 0.125762 0
0.66166 0.32475 0
0.662288 0.283458 0
0.639066 0.301096 0
0.949255 0.366653 0
0.949255 0.316653 0
1 0.35 0
0.291542 0.723459 0
0.27993 0.682005 0
0.259178 0.706333 0
0.394055 0.89916 0
0.430698 0.904686 0
0.531524 0.28422 0
0.492115 0.297124 0
0.522791 0.316692 0
0.040646 0.122453 0
0.040646 0.172453 0
0 0.15 0
1 0.15 0
0.151681 0.262718 0
0.192069 0.222774 0
0.137841 0.213317 0
0.558428 0.264284 0
0.600947 0.281797 0
0.597175 0.242291 0
0.508973 0.20957 0
0.551071 0.183459 0
0.505387 0.168251 0
0.118847 0.906605 0
0.088766 0.958276 0
0.3123 0.881198 0
0.329373 0.835836 0
0.290155 0.856751 0
0.18042 0.709353 0
0.223182 0.704287 0
0.204805 0.669945 0
0.114037 0.464054 0
0.157422 0.486991 0
0.15195 0.441504 0
0.279361 0.505346 0
0.248729 0.459236 0
0.225966 0.51055 0
0.423399 0.442555 0
0.448567 0.488847 0
0.892767 0.068106 0
0.65 0 0
0.901255 0.379406 0
0.952 0.412754 0
0.858877 0.146767 0
0.822019 0.189153 0
0.871644 0.19391 0
0.14825 0.528535 0
0.186162 0.505985 0
0.178931 0.775801 0
0.161815 0.746482 0
0.141948 0.778588 0
0.29813 0.591225 0
0.34111 0.580516 0
0.299577 0.545951 0
0.913519 0.288882 0
0.881657 0.240376 0
0.866648 0.2848 0
0.664882 0.143162 0
0.708469 0.158169 0
0.686215 0.112871 0
0.768308 0.293401 0
0.818722 0.278253 0
0.784372 0.251443 0
0.407693 0.254387 0
0.452622 0.232766 0
0.418361 0.215983 0
0.559238 0.352343 0
0.519829 0.365247 0
0.269689 0.146391 0
0.323596 0.167402 0
0.313091 0.113188 0
0.367897 0.0645775 0
0.396163 0.0349765 0
0.220028 0.321352 0
0.17678 0.307097 0
0.190899 0.356272 0
0.584604 0.203855 0
0.581018 0.162535 0
0.250656 0.860137 0
0.267729 0.814776 0
0.359821 0.770477 0
0.31886 0.781193 0
0.348189 0.800674 0
0.124404 0.679582 0
0.141706 0.637726 0
0.104067 0.642297 0
0.216622 0.899385 0
0.203213 0.085617 0
0.162735 0.126214 0
0.218707 0.132775 0
0.0893725 0.199083 0
0.129761 0.159139 0
0.121022 0.819921 0
0.103905 0.790602 0
0.193647 0.813034 0
0.159614 0.852282 0
0.194196 0.85741 0
0.650843 0.185696 0
0.628589 0.140398 0
0.504917 0.076007 0
0.50366 0.114367 0
0.548742 0.103779 0
0.378761 0.595487 0
0.380208 0.550214 0
0.466523 0.368506 0
0.783675 0.0347525 0
0.75 0 0
0.595056 0.120002 0
0.20263 0.384402 0
0.183224 0.431359 0
0.214741 0.417484 0
0.084015 0.29788 0
0.109114 0.342258 0
0.122552 0.29764 0
0.370334 0.82512 0
0.387646 0.864998 0
0.406461 0.829835 0
0.355164 0.351116 0
0.345461 0.389393 0
0.38124 0.369312 0
0.177444 0.641792 0
0.157107 0.604507 0
0.0286115 0.437949 0
0.0286115 0.487949 0
0 0.45 0
0.184917 0.578051 0
0.216794 0.552094 0
0.310754 0.412615 0
0.268135 0.41228 0
0.13984 0.408422 0
0.159382 0.370147 0
0.128108 0.380293 0
0.784378 0.167398 0
0.797145 0.21454 0
0.649424 0.382815 0
0.693196 0.390508 0
0.682209 0.350082 0
0.471401 0.267911 0
0.482069 0.229507 0
0.600319 0.323089 0
0.597356 0.371644 0
0.370215 0.185901 0
0.420304 0.369225 0
0.410601 0.407502 0
0.5 0.65 0
0.293615 0.645334 0
0.325979 0.66246 0
0.342624 0.703635 0
0.356309 0.666965 0
0.24951 0.782974 0
0.289009 0.779588 0
0.810542 0.362514 0
0.76432 0.338993 0
0.772204 0.381296 0
0.70942 0.286852 0
0.705431 0.332443 0
0.729969 0.312184 0
0.831184 0.106754 0
0.88081 0.111511 0
0.700748 0.430301 0
0.733534 0.397568 0
0.850584 0.326758 0
0.229212 0.186988 0
0.407496 0.52144 0
0.369845 0.506468 0
0.413594 0.760165 0
0.405497 0.719256 0
0.381051 0.749049 0
0.444574 0.794979 0
0.383872 0.640216 0
0.400517 0.681391 0
0.355233 0.0967005 0
0.42608 0.078274 0
0.379662 0.102076 0
0.055907 0.589708 0
0.0873405 0.613876 0
0.072862 0.718619 0
0.0918955 0.751177 0
0.105798 0.716711 0
0.234794 0.74574 0
0.213514 0.780928 0
0.143437 0.712141 0
0.72332 0.190623 0
0.744653 0.160332 0
0.788301 0.105758 0
0.748577 0.0986915 0
0.769527 0.134944 0
0.357928 0.894445 0
0.318709 0.915359 0
0.0802555 0.874244 0
0.121571 0.864297 0
0.32234 0.494638 0
0.349629 0.465863 0
0.384335 0.442641 0
0.336831 0.43081 0
0.608343 0.412069 0
0.527752 0.244716 0
0.858468 0.369061 0
0.627123 0.221367 0
0.382188 0.284319 0
0.345561 0.3138 0
0.437163 0.330315 0
0.746731 0.229689 0
0.149179 0.573985 0
0.720027 0.100984 0
0.810234 0.070501 0
0.861213 0.415162 0
0.827831 0.478851 0
0.85 0.5 0
0.082894 0.447232 0
0.0883665 0.492719 0
0.0578625 0.514002 0
0.300642 0.749391 0
0.351723 0.729569 0
0.321394 0.725064 0
0.416449 0.301103 0
0.462668 0.300384 0
0.837044 0.431259 0
</DataArray>
</Points>
<Cells>
<DataArray  type="UInt32"  Name="connectivity"  format="ascii">
1 138 139 
14 137 139 
45 137 138 
137 138 139 
4 141 142 
27 140 142 
65 140 141 
140 141 142 
0 144 145 
23 143 145 
43 143 144 
143 144 145 
4 141 147 
65 141 146 
105 146 147 
141 146 147 
5 149 150 
31 148 150 
47 148 149 
148 149 150 
2 152 153 
32 151 153 
44 151 152 
151 152 153 
2 152 155 
15 154 155 
44 152 154 
152 154 155 
15 154 157 
44 154 156 
101 156 157 
154 156 157 
6 159 160 
43 158 160 
93 158 159 
158 159 160 
15 162 163 
16 161 163 
71 161 162 
161 162 163 
6 159 165 
7 164 165 
93 159 164 
159 164 165 
[...]
<PointData  Vectors="u"> 
<DataArray  type="Float32"  Name="u"  NumberOfComponents="3" format="ascii">
 0.000000e+00 0.000000e+00 0.000000e+00
 0.000000e+00 0.000000e+00 0.000000e+00
 0.000000e+00 0.000000e+00 0.000000e+00
 0.000000e+00 0.000000e+00 0.000000e+00
 0.000000e+00 0.000000e+00 0.000000e+00
 0.000000e+00 0.000000e+00 0.000000e+00
 0.000000e+00 0.000000e+00 0.000000e+00
 0.000000e+00 0.000000e+00 0.000000e+00
 0.000000e+00 0.000000e+00 0.000000e+00
 0.000000e+00 0.000000e+00 0.000000e+00
 0.000000e+00 0.000000e+00 0.000000e+00
 0.000000e+00 0.000000e+00 0.000000e+00
 0.000000e+00 0.000000e+00 0.000000e+00
 0.000000e+00 0.000000e+00 0.000000e+00
 0.000000e+00 0.000000e+00 0.000000e+00
 0.000000e+00 0.000000e+00 0.000000e+00
 0.000000e+00 0.000000e+00 0.000000e+00
 0.000000e+00 0.000000e+00 0.000000e+00
 0.000000e+00 0.000000e+00 0.000000e+00
 0.000000e+00 0.000000e+00 0.000000e+00
 0.000000e+00 0.000000e+00 0.000000e+00
 0.000000e+00 0.000000e+00 0.000000e+00
 0.000000e+00 0.000000e+00 0.000000e+00
 0.000000e+00 0.000000e+00 0.000000e+00
 0.000000e+00 0.000000e+00 0.000000e+00
 0.000000e+00 0.000000e+00 0.000000e+00
 0.000000e+00 0.000000e+00 0.000000e+00
 0.000000e+00 0.000000e+00 0.000000e+00
 0.000000e+00 0.000000e+00 0.000000e+00
 0.000000e+00 0.000000e+00 0.000000e+00
 0.000000e+00 0.000000e+00 0.000000e+00
 0.000000e+00 0.000000e+00 0.000000e+00
 1.040808e-03 -2.353171e-01 0.000000e+00
 2.135472e-03 -2.495795e-01 0.000000e+00
 2.247801e-03 -2.549388e-01 0.000000e+00
 1.242710e-03 -2.458558e-01 0.000000e+00
 2.365169e-01 2.464784e-03 0.000000e+00
 2.505793e-01 5.028070e-03 0.000000e+00
 2.541092e-01 5.187667e-03 0.000000e+00
 2.444780e-01 2.640083e-03 0.000000e+00
 1.172726e-01 -1.269238e-01 0.000000e+00
 2.867354e-02 -2.438747e-01 0.000000e+00
 2.490521e-01 -2.741280e-02 0.000000e+00
 1.106578e-02 -1.110845e-02 0.000000e+00
 3.678371e-04 -1.597151e-01 0.000000e+00
 2.011814e-01 9.199031e-04 0.000000e+00
 1.635288e-01 6.861149e-04 0.000000e+00
 8.443507e-04 -2.048037e-01 0.000000e+00
 5.221949e-02 -1.902546e-01 0.000000e+00
 2.419861e-01 -1.167446e-01 0.000000e+00
 2.506756e-01 -3.922684e-04 0.000000e+00
 1.005579e-02 -2.578869e-01 0.000000e+00
 6.377264e-02 -6.483755e-02 0.000000e+00
 1.531418e-01 -4.433824e-02 0.000000e+00
 2.231316e-01 -2.741584e-02 0.000000e+00
 8.491548e-03 -2.362639e-01 0.000000e+00
 3.467672e-03 -2.486725e-01 0.000000e+00
 7.888419e-02 -2.733933e-01 0.000000e+00
 4.432099e-02 -1.378767e-01 0.000000e+00
 2.477052e-01 -5.234613e-03 0.000000e+00
 2.584439e-01 -6.908203e-03 0.000000e+00
 1.773223e-02 -2.140570e-01 0.000000e+00
 1.759371e-02 -2.714841e-01 0.000000e+00
 2.527805e-01 2.204098e-03 0.000000e+00
 2.554160e-01 2.343112e-03 0.000000e+00
 2.850210e-01 -6.156765e-02 0.000000e+00
 9.498029e-02 -2.715005e-02 0.000000e+00
 1.981266e-01 -5.981349e-02 0.000000e+00
 2.106886e-03 -2.269622e-01 0.000000e+00
 9.383717e-03 -2.478284e-01 0.000000e+00
 2.044688e-02 -4.254422e-02 0.000000e+00
 2.579266e-03 -2.175743e-01 0.000000e+00
 1.792510e-01 -8.150381e-03 0.000000e+00
 1.596016e-01 -2.134410e-01 0.000000e+00
 2.265199e-01 -8.365502e-03 0.000000e+00
 1.751950e-01 -1.892566e-02 0.000000e+00
 2.555977e-02 -1.585661e-01 0.000000e+00
 4.465252e-03 -2.521461e-01 0.000000e+00
 5.275034e-02 -2.319868e-01 0.000000e+00
 2.386523e-02 -1.913456e-01 0.000000e+00
 7.910349e-02 -1.576707e-01 0.000000e+00
 2.606284e-02 -9.102514e-02 0.000000e+00
 2.673185e-01 -2.539204e-02 0.000000e+00
 2.314522e-01 -4.721697e-02 0.000000e+00
 1.570241e-01 -9.380313e-02 0.000000e+00
 3.960569e-02 -2.748812e-01 0.000000e+00
 1.716082e-02 -2.517565e-01 0.000000e+00
 2.512753e-01 -9.395145e-03 0.000000e+00
 2.504275e-01 3.923558e-03 0.000000e+00
 2.119253e-01 1.154251e-04 0.000000e+00
 2.385632e-01 -2.352296e-04 0.000000e+00
 1.114900e-01 -7.864773e-02 0.000000e+00
 5.147160e-02 -2.936779e-01 0.000000e+00
 4.321092e-02 -2.107756e-02 0.000000e+00
 7.508294e-03 -2.589033e-01 0.000000e+00
 1.492105e-02 -2.488492e-01 0.000000e+00
 1.099980e-01 -1.292471e-02 0.000000e+00
 7.378193e-03 -2.087817e-01 0.000000e+00
 1.808947e-02 -2.342384e-01 0.000000e+00
 2.525467e-01 -1.409113e-03 0.000000e+00
 2.486364e-03 -2.588267e-01 0.000000e+00
 1.132326e-03 -2.150135e-01 0.000000e+00
 7.511157e-03 -2.455063e-01 0.000000e+00
 9.771003e-02 -2.164338e-01 0.000000e+00
 7.295858e-02 -1.112142e-01 0.000000e+00
 2.448543e-01 -2.056635e-01 0.000000e+00
 2.308623e-01 -5.225453e-03 0.000000e+00
 2.554373e-01 -6.044578e-02 0.000000e+00
 2.546990e-01 -2.113677e-03 0.000000e+00
 2.404329e-01 -2.467168e-02 0.000000e+00
 1.752314e-01 -1.492500e-01 0.000000e+00
 2.485500e-01 -1.341505e-02 0.000000e+00
 1.466038e-02 -1.107441e-01 0.000000e+00
 2.023113e-01 -8.703492e-04 0.000000e+00
 3.566692e-02 -2.123012e-01 0.000000e+00
 2.118696e-01 -2.805732e-03 0.000000e+00
 3.062281e-02 -2.273565e-01 0.000000e+00
 5.011911e-02 -1.629815e-01 0.000000e+00
 2.687587e-03 -1.813743e-01 0.000000e+00
 2.188610e-01 9.705487e-04 0.000000e+00
 5.774892e-03 -2.174884e-01 0.000000e+00
 8.336914e-03 -1.356343e-01 0.000000e+00
 6.952141e-03 -1.541427e-01 0.000000e+00
 1.547603e-02 -2.641821e-01 0.000000e+00
 2.402333e-02 -2.622348e-01 0.000000e+00
 2.571361e-01 -1.653758e-02 0.000000e+00
 4.454285e-03 -1.584162e-01 0.000000e+00
 1.483040e-02 -2.432272e-01 0.000000e+00
 1.381598e-01 -1.584550e-02 0.000000e+00
 5.356413e-03 -2.612261e-01 0.000000e+00
 1.446001e-01 -2.875323e-01 0.000000e+00
 1.241369e-01 -1.724278e-01 0.000000e+00
 2.080929e-01 -1.197315e-03 0.000000e+00
 1.967975e-01 -1.004055e-01 0.000000e+00
 2.517080e-01 -5.545966e-03 0.000000e+00
 1.588485e-01 2.112555e-04 0.000000e+00
 2.230872e-01 -7.776299e-02 0.000000e+00
 1.295181e-01 2.579430e-04 0.000000e+00
 1.287503e-01 5.252345e-04 0.000000e+00
 0.000000e+00 0.000000e+00 0.000000e+00
 2.046801e-01 -1.663407e-02 0.000000e+00
 2.484810e-01 -9.725205e-02 0.000000e+00
 0.000000e+00 0.000000e+00 0.000000e+00
 4.185757e-03 -9.602363e-03 0.000000e+00
 1.911003e-03 -1.887812e-03 0.000000e+00
 0.000000e+00 0.000000e+00 0.000000e+00
 2.879692e-01 -1.402430e-01 0.000000e+00
 2.430404e-01 -2.271115e-01 0.000000e+00
 3.323841e-04 -1.305289e-01 0.000000e+00
 3.169359e-04 -1.299441e-01 0.000000e+00
 0.000000e+00 0.000000e+00 0.000000e+00
 6.876192e-04 -2.092718e-01 0.000000e+00
 1.623455e-04 -9.566223e-02 0.000000e+00
 4.290994e-04 -1.726981e-01 0.000000e+00
 1.519019e-04 -9.502625e-02 0.000000e+00
 0.000000e+00 0.000000e+00 0.000000e+00
 6.659337e-04 -1.923114e-01 0.000000e+00
 4.135475e-04 -1.456178e-01 0.000000e+00
 2.545670e-02 -1.684243e-02 0.000000e+00
 2.229292e-02 -6.821817e-03 0.000000e+00
 9.766976e-03 -4.297413e-03 0.000000e+00
 9.608776e-04 -1.483919e-01 0.000000e+00
 6.504805e-04 -1.500094e-01 0.000000e+00
 0.000000e+00 0.000000e+00 0.000000e+00
 3.669303e-02 -7.202678e-03 0.000000e+00
 0.000000e+00 0.000000e+00 0.000000e+00
 0.000000e+00 0.000000e+00 0.000000e+00
 1.064353e-01 -1.967247e-02 0.000000e+00
 6.512684e-02 -4.418804e-03 0.000000e+00
 7.434494e-02 -9.020311e-03 0.000000e+00
 2.749120e-03 -2.018043e-01 0.000000e+00
 7.541757e-04 -1.150946e-01 0.000000e+00
 1.069067e-03 -1.125913e-01 0.000000e+00
 0.000000e+00 0.000000e+00 0.000000e+00
 3.340071e-02 -3.371921e-02 0.000000e+00
 1.653141e-02 -2.532600e-02 0.000000e+00
 5.846314e-02 -9.173033e-03 0.000000e+00
 0.000000e+00 0.000000e+00 0.000000e+00
 7.589390e-02 -4.097922e-03 0.000000e+00
 0.000000e+00 0.000000e+00 0.000000e+00
 1.271385e-01 -5.769526e-03 0.000000e+00
 1.151772e-01 -6.717599e-03 0.000000e+00
 0.000000e+00 0.000000e+00 0.000000e+00
 1.945071e-01 -3.874166e-02 0.000000e+00
 1.693025e-01 -3.113162e-02 0.000000e+00
 1.767920e-01 -5.406052e-02 0.000000e+00
 1.194405e-01 -2.214709e-03 0.000000e+00
 1.127952e-01 -3.009104e-03 0.000000e+00
 0.000000e+00 0.000000e+00 0.000000e+00
 2.065070e-01 -8.830746e-03 0.000000e+00
 1.618513e-01 -3.143974e-03 0.000000e+00
 1.957506e-01 8.659084e-04 0.000000e+00
 1.463010e-01 3.269374e-04 0.000000e+00
 9.672554e-02 1.850460e-04 0.000000e+00
 6.071566e-03 -1.873126e-01 0.000000e+00
 1.260550e-03 -1.002975e-01 0.000000e+00
 2.364490e-03 -1.463851e-01 0.000000e+00
 1.573137e-03 -9.615650e-02 0.000000e+00
 0.000000e+00 0.000000e+00 0.000000e+00
 9.985192e-02 -1.641657e-01 0.000000e+00
 1.209681e-01 -1.483547e-01 0.000000e+00
 9.792078e-02 -1.435066e-01 0.000000e+00
 1.879815e-02 -2.129560e-01 0.000000e+00
 6.525410e-02 -2.533281e-01 0.000000e+00
 0.000000e+00 0.000000e+00 0.000000e+00
 2.703031e-02 -2.704185e-01 0.000000e+00
 7.548708e-03 -1.745884e-01 0.000000e+00
 9.184720e-03 -2.322722e-01 0.000000e+00
 2.350025e-03 -1.403997e-01 0.000000e+00
 4.208345e-03 -1.622227e-01 0.000000e+00
 1.511283e-03 -1.361687e-01 0.000000e+00
 0.000000e+00 0.000000e+00 0.000000e+00
 2.417267e-03 -2.496867e-01 0.000000e+00
 1.744912e-03 -2.465967e-01 0.000000e+00
 1.664543e-03 -2.495165e-01 0.000000e+00
 1.937202e-01 4.904901e-04 0.000000e+00
 9.389067e-02 1.223720e-04 0.000000e+00
 2.168861e-01 1.629768e-03 0.000000e+00
 9.769881e-02 3.849667e-04 0.000000e+00
 1.795809e-01 1.116808e-03 0.000000e+00
 2.214660e-01 -5.049219e-03 0.000000e+00
 1.422181e-01 -9.221277e-04 0.000000e+00
 1.660979e-01 -2.091035e-03 0.000000e+00
 2.239789e-01 -7.338525e-04 0.000000e+00
 1.276358e-01 4.584793e-06 0.000000e+00
 1.715595e-01 2.881538e-05 0.000000e+00
 2.102505e-01 -1.899549e-03 0.000000e+00
 1.351034e-01 -6.152665e-04 0.000000e+00
 0.000000e+00 0.000000e+00 0.000000e+00
 1.282622e-01 -8.446091e-05 0.000000e+00
 0.000000e+00 0.000000e+00 0.000000e+00
 2.485215e-03 -9.300646e-02 0.000000e+00
 2.085255e-03 -9.906093e-02 0.000000e+00
 0.000000e+00 0.000000e+00 0.000000e+00
 1.448347e-02 -1.818226e-01 0.000000e+00
 1.260226e-02 -1.929048e-01 0.000000e+00
 2.083749e-02 -2.035915e-01 0.000000e+00
 6.011490e-04 -1.514093e-01 0.000000e+00
 1.038365e-03 -1.534856e-01 0.000000e+00
 0.000000e+00 0.000000e+00 0.000000e+00
 2.025131e-02 -1.362912e-01 0.000000e+00
 4.812156e-03 -7.786246e-02 0.000000e+00
 8.906776e-03 -1.149034e-01 0.000000e+00
 2.516774e-01 3.215276e-03 0.000000e+00
 2.502868e-01 4.833667e-03 0.000000e+00
 2.519637e-01 3.898996e-03 0.000000e+00
 1.551307e-01 -8.128179e-04 0.000000e+00
 1.498524e-01 -3.879239e-04 0.000000e+00
 0.000000e+00 0.000000e+00 0.000000e+00
 5.037637e-03 -6.693614e-02 0.000000e+00
 0.000000e+00 0.000000e+00 0.000000e+00
 8.837010e-03 -5.611016e-02 0.000000e+00
 8.549326e-03 -7.061178e-02 0.000000e+00
 0.000000e+00 0.000000e+00 0.000000e+00
 2.787661e-03 -2.534913e-01 0.000000e+00
 2.802930e-03 -2.495799e-01 0.000000e+00
 2.346666e-03 -2.502994e-01 0.000000e+00
 1.630460e-03 -2.544714e-01 0.000000e+00
 2.254266e-03 -2.583866e-01 0.000000e+00
 1.853163e-03 -2.588737e-01 0.000000e+00
 2.226848e-01 1.733329e-03 0.000000e+00
 1.732545e-01 1.058554e-03 0.000000e+00
 1.394628e-01 1.372561e-04 0.000000e+00
 1.395859e-01 -6.627802e-05 0.000000e+00
 0.000000e+00 0.000000e+00 0.000000e+00
 2.494634e-01 -1.209807e-02 0.000000e+00
 2.471056e-01 -1.981605e-02 0.000000e+00
 2.508489e-01 -1.689143e-02 0.000000e+00
 2.515273e-01 4.960067e-03 0.000000e+00
 2.503985e-01 5.473922e-03 0.000000e+00
 1.652137e-03 -2.460570e-01 0.000000e+00
 1.035121e-03 -2.300599e-01 0.000000e+00
 5.649915e-04 -1.802709e-01 0.000000e+00
 1.337746e-01 -8.705207e-02 0.000000e+00
 1.142148e-01 -1.022904e-01 0.000000e+00
 1.376851e-01 -1.115984e-01 0.000000e+00
 9.192597e-02 -9.554902e-02 0.000000e+00
 9.432028e-02 -1.187023e-01 0.000000e+00
 4.053898e-02 -2.280891e-01 0.000000e+00
 3.054064e-02 -2.355340e-01 0.000000e+00
 3.947416e-02 -2.398047e-01 0.000000e+00
 2.426836e-01 1.668015e-03 0.000000e+00
 2.482601e-01 2.749013e-03 0.000000e+00
 2.616854e-01 -2.071626e-02 0.000000e+00
 2.535648e-01 -2.214774e-02 0.000000e+00
 2.577333e-01 -2.826768e-02 0.000000e+00
 2.552811e-01 3.086673e-03 0.000000e+00
 2.551036e-01 4.102212e-03 0.000000e+00
 2.574791e-01 4.173861e-03 0.000000e+00
 2.055431e-02 -2.562550e-01 0.000000e+00
 2.723426e-02 -2.530512e-01 0.000000e+00
 2.254813e-02 -2.485824e-01 0.000000e+00
 2.496437e-03 -2.509633e-01 0.000000e+00
 1.295055e-03 -2.165304e-01 0.000000e+00
 2.402770e-01 -7.158661e-02 0.000000e+00
 2.308222e-01 -9.517099e-02 0.000000e+00
 2.528208e-01 -8.594290e-02 0.000000e+00
 6.596139e-03 -2.174521e-02 0.000000e+00
 6.812931e-03 -3.522762e-02 0.000000e+00
 0.000000e+00 0.000000e+00 0.000000e+00
 2.509263e-01 3.935782e-03 0.000000e+00
 4.920329e-02 -1.043838e-01 0.000000e+00
 6.866840e-02 -8.821171e-02 0.000000e+00
 4.429549e-02 -8.124701e-02 0.000000e+00
 2.403185e-01 -5.490863e-02 0.000000e+00
 2.515367e-01 -4.101097e-02 0.000000e+00
 2.422389e-01 -3.787153e-02 0.000000e+00
 2.164464e-01 -5.529469e-02 0.000000e+00
 2.272327e-01 -3.775847e-02 0.000000e+00
 2.126909e-01 -4.217818e-02 0.000000e+00
 2.225592e-03 -2.426013e-01 0.000000e+00
 1.016112e-03 -2.268754e-01 0.000000e+00
 5.188610e-03 -2.573478e-01 0.000000e+00
 7.545539e-03 -2.605012e-01 0.000000e+00
 6.912150e-03 -2.545553e-01 0.000000e+00
 1.679659e-02 -2.395036e-01 0.000000e+00
 2.092731e-02 -2.425566e-01 0.000000e+00
 2.378411e-02 -2.374188e-01 0.000000e+00
 2.524372e-02 -1.758346e-01 0.000000e+00
 3.696775e-02 -1.925146e-01 0.000000e+00
 3.931979e-02 -1.768679e-01 0.000000e+00
 7.279038e-02 -2.272572e-01 0.000000e+00
 7.256747e-02 -1.989986e-01 0.000000e+00
 5.502959e-02 -2.107490e-01 0.000000e+00
 2.010312e-01 -2.605122e-01 0.000000e+00
 1.602608e-01 -2.927477e-01 0.000000e+00
 2.070088e-01 5.552899e-04 0.000000e+00
 0.000000e+00 0.000000e+00 0.000000e+00
 2.513495e-01 1.744673e-03 0.000000e+00
 2.338599e-01 1.895115e-03 0.000000e+00
 2.530851e-01 5.527526e-04 0.000000e+00
 2.526688e-01 -1.098457e-03 0.000000e+00
 2.523251e-01 1.370173e-03 0.000000e+00
 3.030287e-02 -2.034079e-01 0.000000e+00
 4.357370e-02 -2.023946e-01 0.000000e+00
 1.076705e-02 -2.444805e-01 0.000000e+00
 1.185643e-02 -2.416272e-01 0.000000e+00
 8.176593e-03 -2.421139e-01 0.000000e+00
 4.951595e-02 -2.552337e-01 0.000000e+00
 5.635551e-02 -2.768072e-01 0.000000e+00
 6.532461e-02 -2.492741e-01 0.000000e+00
 2.523992e-01 3.295349e-03 0.000000e+00
 2.505456e-01 2.043268e-03 0.000000e+00
 2.519034e-01 1.350446e-03 0.000000e+00
 2.450004e-01 -1.201276e-02 0.000000e+00
 2.499340e-01 -8.825422e-03 0.000000e+00
 2.397239e-01 -7.038468e-03 0.000000e+00
 2.530118e-01 -5.253204e-03 0.000000e+00
 2.515399e-01 -1.345338e-03 0.000000e+00
 2.506516e-01 -4.012555e-03 0.000000e+00
 1.761351e-01 -9.849271e-02 0.000000e+00
 1.961831e-01 -7.881496e-02 0.000000e+00
 1.788477e-01 -7.730885e-02 0.000000e+00
 2.778705e-01 -6.718114e-02 0.000000e+00
 2.786780e-01 -1.043013e-01 0.000000e+00
 1.075497e-01 -5.255422e-02 0.000000e+00
 1.335401e-01 -6.180532e-02 0.000000e+00
 1.249400e-01 -3.638229e-02 0.000000e+00
 1.241939e-01 -1.452701e-02 0.000000e+00
 9.322528e-02 -5.092540e-03 0.000000e+00
 7.673110e-02 -1.341112e-01 0.000000e+00
 5.816870e-02 -1.255572e-01 0.000000e+00
 6.148771e-02 -1.472909e-01 0.000000e+00
 2.360647e-01 -3.469173e-02 0.000000e+00
 2.333019e-01 -2.691637e-02 0.000000e+00
 6.723340e-03 -2.499202e-01 0.000000e+00
 1.014457e-02 -2.516139e-01 0.000000e+00
 1.150520e-02 -2.658233e-01 0.000000e+00
 1.260687e-02 -2.607985e-01 0.000000e+00
 9.478840e-03 -2.636237e-01 0.000000e+00
 1.268232e-02 -2.283247e-01 0.000000e+00
 1.846455e-02 -2.260053e-01 0.000000e+00
 1.191552e-02 -2.145051e-01 0.000000e+00
 4.315492e-03 -2.487403e-01 0.000000e+00
 6.837459e-02 -2.429185e-02 0.000000e+00
 5.608595e-02 -4.231513e-02 0.000000e+00
 8.255606e-02 -4.606232e-02 0.000000e+00
 2.346171e-02 -6.645308e-02 0.000000e+00
 4.132199e-02 -5.609181e-02 0.000000e+00
 4.929702e-03 -2.401853e-01 0.000000e+00
 4.993171e-03 -2.310769e-01 0.000000e+00
 8.723483e-03 -2.465450e-01 0.000000e+00
 5.238363e-03 -2.473801e-01 0.000000e+00
 6.005733e-03 -2.479937e-01 0.000000e+00
 2.452791e-01 -1.864818e-02 0.000000e+00
 2.398916e-01 -1.588679e-02 0.000000e+00
 1.804845e-01 -1.296807e-02 0.000000e+00
 2.039010e-01 -2.476408e-02 0.000000e+00
 2.122817e-01 -1.718895e-02 0.000000e+00
 4.613556e-02 -2.907420e-01 0.000000e+00
 7.235710e-02 -2.968229e-01 0.000000e+00
 2.498731e-01 -1.556711e-01 0.000000e+00
 1.364500e-01 -2.582761e-04 0.000000e+00
 0.000000e+00 0.000000e+00 0.000000e+00
 2.293367e-01 -1.621064e-02 0.000000e+00
 6.380711e-02 -1.604314e-01 0.000000e+00
 5.159082e-02 -1.765884e-01 0.000000e+00
 6.576773e-02 -1.754852e-01 0.000000e+00
 2.001901e-02 -1.033587e-01 0.000000e+00
 2.873543e-02 -1.303929e-01 0.000000e+00
 3.570214e-02 -1.158526e-01 0.000000e+00
 6.537864e-03 -2.615075e-01 0.000000e+00
 3.801630e-03 -2.550693e-01 0.000000e+00
 4.161014e-03 -2.460035e-01 0.000000e+00
 1.495298e-01 -1.640435e-01 0.000000e+00
 1.405674e-01 -1.911197e-01 0.000000e+00
 1.713446e-01 -1.807738e-01 0.000000e+00
 2.383485e-02 -2.310325e-01 0.000000e+00
 2.452367e-02 -2.223957e-01 0.000000e+00
 3.147309e-03 -7.847904e-02 0.000000e+00
 2.702829e-03 -8.596473e-02 0.000000e+00
 0.000000e+00 0.000000e+00 0.000000e+00
 3.341665e-02 -2.204117e-01 0.000000e+00
 4.459922e-02 -2.196311e-01 0.000000e+00
 1.126848e-01 -1.960248e-01 0.000000e+00
 8.944342e-02 -1.833771e-01 0.000000e+00
 3.770506e-02 -1.629710e-01 0.000000e+00
 4.763542e-02 -1.508086e-01 0.000000e+00
 3.454486e-02 -1.500194e-01 0.000000e+00
 2.531299e-01 -3.123789e-03 0.000000e+00
 2.512728e-01 -2.828756e-03 0.000000e+00
 2.642974e-01 -1.523530e-02 0.000000e+00
 2.539782e-01 -7.004372e-03 0.000000e+00
 2.626407e-01 -1.357625e-02 0.000000e+00
 2.111073e-01 -8.974011e-02 0.000000e+00
 2.087401e-01 -6.976243e-02 0.000000e+00
 2.654577e-01 -4.234265e-02 0.000000e+00
 2.783020e-01 -3.835908e-02 0.000000e+00
 1.560216e-01 -6.842907e-02 0.000000e+00
 2.074512e-01 -1.777732e-01 0.000000e+00
 1.989605e-01 -2.195342e-01 0.000000e+00
 0.000000e+00 0.000000e+00 0.000000e+00
 3.512064e-02 -2.564179e-01 0.000000e+00
 3.059113e-02 -2.678305e-01 0.000000e+00
 2.154088e-02 -2.695975e-01 0.000000e+00
 2.707988e-02 -2.758304e-01 0.000000e+00
 1.295357e-02 -2.489866e-01 0.000000e+00
 1.343539e-02 -2.551594e-01 0.000000e+00
 2.546228e-01 -1.064055e-03 0.000000e+00
 2.566026e-01 -4.465854e-03 0.000000e+00
 2.516134e-01 -2.311492e-03 0.000000e+00
 2.534659e-01 -1.270920e-02 0.000000e+00
 2.594241e-01 -1.138799e-02 0.000000e+00
 2.558062e-01 -9.050338e-03 0.000000e+00
 2.429415e-01 -3.492555e-04 0.000000e+00
 2.449458e-01 8.883887e-04 0.000000e+00
 2.159805e-01 -2.158731e-03 0.000000e+00
 2.462089e-01 -3.361104e-03 0.000000e+00
 2.548205e-01 5.403048e-04 0.000000e+00
 8.754359e-02 -7.185514e-02 0.000000e+00
 9.913380e-02 -3.076068e-01 0.000000e+00
 1.052457e-01 -2.844483e-01 0.000000e+00
 7.079674e-03 -2.459515e-01 0.000000e+00
 1.152059e-02 -2.582026e-01 0.000000e+00
 1.168796e-02 -2.653936e-01 0.000000e+00
 2.733947e-03 -1.983165e-01 0.000000e+00
 2.926460e-02 -2.817451e-01 0.000000e+00
 1.731834e-02 -2.679971e-01 0.000000e+00
 1.389680e-01 -2.774153e-02 0.000000e+00
 1.569818e-01 -1.763025e-02 0.000000e+00
 1.520728e-01 -2.910818e-02 0.000000e+00
 5.650908e-03 -1.570709e-01 0.000000e+00
 1.033857e-02 -1.983121e-01 0.000000e+00
 4.629976e-03 -1.983241e-01 0.000000e+00
 5.440801e-03 -2.201319e-01 0.000000e+00
 8.277160e-03 -2.255857e-01 0.000000e+00
 1.652576e-02 -2.462041e-01 0.000000e+00
 1.208542e-02 -2.459059e-01 0.000000e+00
 1.271009e-02 -2.364615e-01 0.000000e+00
 2.505788e-01 -9.046043e-03 0.000000e+00
 2.519605e-01 -5.745679e-03 0.000000e+00
 2.418167e-01 -1.615209e-03 0.000000e+00
 2.364622e-01 -2.806748e-03 0.000000e+00
 2.507905e-01 -3.202559e-03 0.000000e+00
 3.658005e-03 -2.600914e-01 0.000000e+00
 3.579060e-03 -2.576678e-01 0.000000e+00
 1.703967e-03 -2.166651e-01 0.000000e+00
 3.386594e-03 -2.422196e-01 0.000000e+00
 9.280116e-02 -2.472350e-01 0.000000e+00
 1.208894e-01 -2.497321e-01 0.000000e+00
 1.591777e-01 -2.507713e-01 0.000000e+00
 1.261281e-01 -2.187368e-01 0.000000e+00
 2.583129e-01 -2.028221e-02 0.000000e+00
 2.274364e-01 -6.125094e-02 0.000000e+00
 2.533570e-01 7.229287e-04 0.000000e+00
 2.436737e-01 -2.731164e-02 0.000000e+00
 1.638181e-01 -1.189656e-01 0.000000e+00