<?xml version="1.0"?>
<VTKFile type="UnstructuredGrid"  version="0.1"  >
<UnstructuredGrid>
<Piece  NumberOfPoints="505" NumberOfCells="928">
<Points>
<DataArray  type="Float32"  NumberOfComponents="3"  format="ascii">
0 0 0
1 0 0
0 1 0
1 0.5 0
0.5 0.5 0
0.5 1 0
0.1 0 0
0.2 0 0
0.3 0 0
0.4 0 0
0.5 0 0
0.6 0 0
0.7 0 0
0.8 0 0
0.9 0 0
0 0.9 0
0 0.8 0
0 0.7 0
0 0.6 0
0 0.5 0
0 0.4 0
0 0.3 0
0 0.2 0
0 0.1 0
0.9 0.5 0
0.8 0.5 0
0.7 0.5 0
0.6 0.5 0
0.5 0.6 0
0.5 0.7 0
0.5 0.8 0
0.5 0.9 0
0.1 1 0
0.2 1 0
0.3 1 0
0.4 1 0
1 0.1 0
1 0.2 0
1 0.3 0
1 0.4 0
0.300178 0.296564 0
0.247566 0.664879 0
0.639694 0.259804 0
0.06564 0.06472 0
0.04439 0.954144 0
0.932418 0.064715 0
0.951013 0.456419 0
0.437622 0.939659 0
0.195334 0.464441 0
0.483382 0.329596 0
0.834786 0.236295 0
0.307228 0.81139 0
0.178229 0.173372 0
0.366998 0.134199 0
0.547485 0.14214 0
0.124832 0.74927 0
0.160163 0.896658 0
0.342556 0.535243 0
0.147651 0.342018 0
0.729803 0.127878 0
0.725981 0.357775 0
0.121369 0.600441 0
0.372954 0.70814 0
0.908503 0.151525 0
0.89851 0.333305 0
0.556275 0.400898 0
0.259184 0.092178 0
0.46329 0.194362 0
0.423773 0.869712 0
0.22823 0.818162 0
0.081292 0.144905 0
0.082979 0.831935 0
0.549999 0.065419 0
0.371537 0.407588 0
0.642628 0.097865 0
0.459835 0.086595 0
0.108565 0.418567 0
0.273082 0.902112 0
0.256598 0.556659 0
0.11951 0.509541 0
0.234147 0.370527 0
0.097453 0.253261 0
0.638438 0.342389 0
0.554656 0.224779 0
0.373432 0.237603 0
0.339663 0.62579 0
0.27079 0.747786 0
0.733958 0.266592 0
0.928527 0.244458 0
0.853116 0.071497 0
0.818426 0.404817 0
0.280194 0.200604 0
0.417859 0.565185 0
0.147241 0.079056 0
0.389149 0.789957 0
0.42808 0.654642 0
0.343469 0.059202 0
0.086765 0.684153 0
0.162043 0.675011 0
0.809252 0.14201 0
0.364337 0.928607 0
0.077532 0.916553 0
0.159064 0.807906 0
0.302124 0.454032 0
0.205909 0.272176 0
0.449664 0.407415 0
0.66041 0.423241 0
0.562201 0.303789 0
0.802658 0.320211 0
0.614551 0.182931 0
0.390944 0.331035 0
0.687136 0.18846 0
0.070577 0.342498 0
0.741087 0.437361 0
0.176989 0.547528 0
0.710251 0.07409 0
0.192845 0.608574 0
0.171114 0.398277 0
0.058959 0.753084 0
0.904 0.425508 0
0.438039 0.730373 0
0.057223 0.475897 0
0.058502 0.552106 0
0.330493 0.750997 0
0.312295 0.699131 0
0.684882 0.307111 0
0.053312 0.627311 0
0.198798 0.743695 0
0.392326 0.069953 0
0.351519 0.860283 0
0.397134 0.477694 0
0.319385 0.371198 0
0.767351 0.069505 0
0.441954 0.271171 0
0.759504 0.192785 0
0.855661 0.457701 0
0.500847 0.264652 0
0.916209 0.0323575 0
0.966209 0.0323575 0
0.95 0 0
0.578137 0.450449 0
0.528137 0.450449 0
0.55 0.5 0
0.03282 0.08236 0
0.03282 0.03236 0
0 0.05 0
0.502969 0.404157 0
0.474832 0.453708 0
0.468811 0.91983 0
0.468811 0.96983 0
0.5 0.95 0
0.072195 0.977072 0
0.022195 0.977072 0
0.05 1 0
0.022195 0.927072 0
0 0.95 0
0.060961 0.935348 0
0.038766 0.908276 0
0.106441 0.071888 0
0.123621 0.039528 0
0.08282 0.03236 0
0.0414895 0.815967 0
0.0414895 0.865968 0
0 0.85 0
0.173621 0.039528 0
0.15 0 0
0.05 0 0
0.301327 0.07569 0
0.321735 0.029601 0
0.279592 0.046089 0
0.070969 0.792509 0
0.0294795 0.776542 0
0.0294795 0.726542 0
0 0.75 0
0.114267 0.111981 0
0.073466 0.104813 0
0.229592 0.046089 0
0.25 0 0
0.371735 0.029601 0
0.35 0 0
0.479917 0.0432975 0
0.429918 0.0432975 0
0.45 0 0
0.461562 0.140479 0
0.413416 0.110397 0
0.415144 0.16428 0
0.574999 0.0327095 0
0.525 0.0327095 0
0.55 0 0
0.596313 0.081642 0
0.621314 0.0489325 0
0.927507 0.440964 0
0.902 0.462754 0
0.925507 0.47821 0
0.0700385 0.655732 0
0.026656 0.663655 0
0.0433825 0.692076 0
0.026656 0.613655 0
0 0.65 0
0.276766 0.370862 0
0.309781 0.333881 0
0.267162 0.333545 0
0.458929 0.582593 0
0.458929 0.532593 0
0.5 0.55 0
0.422969 0.609913 0
0.46404 0.627321 0
0.43306 0.692508 0
0.46902 0.715186 0
0.46404 0.677321 0
0.46902 0.765186 0
0.5 0.75 0
0.180082 0.948329 0
0.130082 0.948329 0
0.15 1 0
0.87983 0.441605 0
0.87783 0.478851 0
0.975507 0.42821 0
0.975507 0.47821 0
1 0.45 0
0.676439 0.0859775 0
0.705125 0.037045 0
0.671314 0.0489325 0
0.779756 0.421089 0
0.770544 0.46868 0
0.809213 0.452408 0
0.738801 0.0717975 0
0.733675 0.0347525 0
0.95 0.5 0
0.720544 0.46868 0
0.75 0.5 0
0.029251 0.526053 0
0.029251 0.576053 0
0 0.55 0
0.089006 0.530824 0
0.0899355 0.576273 0
0.12044 0.554991 0
0.461886 0.884856 0
0.461886 0.834856 0
0.5 0.85 0
0.089571 0.380533 0
0.0352885 0.371249 0
0.0542825 0.409284 0
0.918515 0.197991 0
0.964263 0.222229 0
0.954252 0.175762 0
0.630205 0.46162 0
0.680205 0.46162 0
0.65 0.5 0
0.0352885 0.321249 0
0 0.35 0
0.0487265 0.226631 0
0.0487265 0.276631 0
0 0.25 0
0.286541 0.951056 0
0.236541 0.951056 0
0.25 1 0
0.382169 0.964303 0
0.332168 0.964303 0
0.35 1 0
0.966209 0.0823575 0
1 0.05 0
0.876558 0.0357485 0
0.826558 0.0357485 0
0.85 0 0
0.710547 0.227526 0
0.663415 0.224132 0
0.686826 0.263198 0
0.964263 0.272229 0
1 0.25 0
0.40098 0.934133 0
0.418811 0.96983 0
0.45 1 0
0.326813 0.219104 0
0.290186 0.248584 0
0.336805 0.267084 0
0.243052 0.23639 0
0.253043 0.28437 0
0.224721 0.582616 0
0.220205 0.636726 0
0.252082 0.610769 0
0.92046 0.10812 0
0.954252 0.125762 0
0.66166 0.32475 0
0.662288 0.283458 0
0.639066 0.301096 0
0.949255 0.366653 0
0.949255 0.316653 0
1 0.35 0
0.291542 0.723459 0
0.27993 0.682005 0
0.259178 0.706333 0
0.394055 0.89916 0
0.430698 0.904686 0
0.531524 0.28422 0
0.492115 0.297124 0
0.522791 0.316692 0
0.040646 0.122453 0
0.040646 0.172453 0
0 0.15 0
1 0.15 0
0.151681 0.262718 0
0.192069 0.222774 0
0.137841 0.213317 0
0.558428 0.264284 0
0.600947 0.281797 0
0.597175 0.242291 0
0.508973 0.20957 0
0.551071 0.183459 0
0.505387 0.168251 0
0.118847 0.906605 0
0.088766 0.958276 0
0.3123 0.881198 0
0.329373 0.835836 0
0.290155 0.856751 0
0.18042 0.709353 0
0.223182 0.704287 0
0.204805 0.669945 0
0.114037 0.464054 0
0.157422 0.486991 0
0.15195 0.441504 0
0.279361 0.505346 0
0.248729 0.459236 0
0.225966 0.51055 0
0.423399 0.442555 0
0.448567 0.488847 0
0.892767 0.068106 0
0.65 0 0
0.901255 0.379406 0
0.952 0.412754 0
0.858877 0.146767 0
0.822019 0.189153 0
0.871644 0.19391 0
0.14825 0.528535 0
0.186162 0.505985 0
0.178931 0.775801 0
0.161815 0.746482 0
0.141948 0.778588 0
0.29813 0.591225 0
0.34111 0.580516 0
0.299577 0.545951 0
0.913519 0.288882 0
0.881657 0.240376 0
0.866648 0.2848 0
0.664882 0.143162 0
0.708469 0.158169 0
0.686215 0.112871 0
0.768308 0.293401 0
0.818722 0.278253 0
0.784372 0.251443 0
0.407693 0.254387 0
0.452622 0.232766 0
0.418361 0.215983 0
0.559238 0.352343 0
0.519829 0.365247 0
0.269689 0.146391 0
0.323596 0.167402 0
0.313091 0.113188 0
0.367897 0.0645775 0
0.396163 0.0349765 0
0.220028 0.321352 0
0.17678 0.307097 0
0.190899 0.356272 0
0.584604 0.203855 0
0.581018 0.162535 0
0.250656 0.860137 0
0.267729 0.814776 0
0.359821 0.770477 0
0.31886 0.781193 0
0.348189 0.800674 0
0.124404 0.679582 0
0.141706 0.637726 0
0.104067 0.642297 0
0.216622 0.899385 0
0.203213 0.085617 0
0.162735 0.126214 0
0.218707 0.132775 0
0.0893725 0.199083 0
0.129761 0.159139 0
0.121022 0.819921 0
0.103905 0.790602 0
0.193647 0.813034 0
0.159614 0.852282 0
0.194196 0.85741 0
0.650843 0.185696 0
0.628589 0.140398 0
0.504917 0.076007 0
0.50366 0.114367 0
0.548742 0.103779 0
0.378761 0.595487 0
0.380208 0.550214 0
0.466523 0.368506 0
0.783675 0.0347525 0
0.75 0 0
0.595056 0.120002 0
0.20263 0.384402 0
0.183224 0.431359 0
0.214741 0.417484 0
0.084015 0.29788 0
0.109114 0.342258 0
0.122552 0.29764 0
0.370334 0.82512 0
0.387646 0.864998 0
0.406461 0.829835 0
0.355164 0.351116 0
0.345461 0.389393 0
0.38124 0.369312 0
0.177444 0.641792 0
0.157107 0.604507 0
0.0286115 0.437949 0
0.0286115 0.487949 0
0 0.45 0
0.184917 0.578051 0
0.216794 0.552094 0
0.310754 0.412615 0
0.268135 0.41228 0
0.13984 0.408422 0
0.159382 0.370147 0
0.128108 0.380293 0
0.784378 0.167398 0
0.797145 0.21454 0
0.649424 0.382815 0
0.693196 0.390508 0
0.682209 0.350082 0
0.471401 0.267911 0
0.482069 0.229507 0
0.600319 0.323089 0
0.597356 0.371644 0
0.370215 0.185901 0
0.420304 0.369225 0
0.410601 0.407502 0
0.5 0.65 0
0.293615 0.645334 0
0.325979 0.66246 0
0.342624 0.703635 0
0.356309 0.666965 0
0.24951 0.782974 0
0.289009 0.779588 0
0.810542 0.362514 0
0.76432 0.338993 0
0.772204 0.381296 0
0.70942 0.286852 0
0.705431 0.332443 0
0.729969 0.312184 0
0.831184 0.106754 0
0.88081 0.111511 0
0.700748 0.430301 0
0.733534 0.397568 0
0.850584 0.326758 0
0.229212 0.186988 0
0.407496 0.52144 0
0.369845 0.506468 0
0.413594 0.760165 0
0.405497 0.719256 0
0.381051 0.749049 0
0.444574 0.794979 0
0.383872 0.640216 0
0.400517 0.681391 0
0.355233 0.0967005 0
0.42608 0.078274 0
0.379662 0.102076 0
0.055907 0.589708 0
0.0873405 0.613876 0
0.072862 0.718619 0
0.0918955 0.751177 0
0.105798 0.716711 0
0.234794 0.74574 0
0.213514 0.780928 0
0.143437 0.712141 0
0.72332 0.190623 0
0.744653 0.160332 0
0.788301 0.105758 0
0.748577 0.0986915 0
0.769527 0.134944 0
0.357928 0.894445 0
0.318709 0.915359 0
0.0802555 0.874244 0
0.121571 0.864297 0
0.32234 0.494638 0
0.349629 0.465863 0
0.384335 0.442641 0
0.336831 0.43081 0
0.608343 0.412069 0
0.527752 0.244716 0
0.858468 0.369061 0
0.627123 0.221367 0
0.382188 0.284319 0
0.345561 0.3138 0
0.437163 0.330315 0
0.746731 0.229689 0
0.149179 0.573985 0
0.720027 0.100984 0
0.810234 0.070501 0
0.861213 0.415162 0
0.827831 0.478851 0
0.85 0.5 0
0.082894 0.447232 0
0.0883665 0.492719 0
0.0578625 0.514002 0
0.300642 0.749391 0
0.351723 0.729569 0
0.321394 0.725064 0
0.416449 0.301103 0
0.462668 0.300384 0
0.837044 0.431259 0
</DataArray>
</Points>
<Cells>
<DataArray  type="UInt32"  Name="connectivity"  format="ascii">
1 138 139 
14 137 139 
45 137 138 
137 138 139 
4 141 142 
27 140 142 
65 140 141 
140 141 142 
0 144 145 
23 143 145 
43 143 144 
143 144 145 
4 141 147 
65 141 146 
105 146 147 
141 146 147 
5 149 150 
31 148 150 
47 148 149 
148 149 150 
2 152 153 
32 151 153 
44 151 152 
151 152 153 
2 152 155 
15 154 155 
44 152 154 
152 154 155 
15 154 157 
44 154 156 
101 156 157 
154 156 157 
6 159 160 
43 158 160 
93 158 159 
158 159 160 
15 162 163 
16 161 163 
71 161 162 
161 162 163 
6 159 165 
7 164 165 
93 159 164 
159 164 165 
[...]
<PointData  Vectors="u"> 
<DataArray  type="Float32"  Name="u"  NumberOfComponents="3" format="ascii">
 0.000000e+00 0.000000e+00 0.000000e+00
 0.000000e+00 0.000000e+00 0.000000e+00
 0.000000e+00 0.000000e+00 0.000000e+00
 0.000000e+00 0.000000e+00 0.000000e+00
 0.000000e+00 0.000000e+00 0.000000e+00
 0.000000e+00 0.000000e+00 0.000000e+00
 0.000000e+00 0.000000e+00 0.000000e+00
 0.000000e+00 0.000000e+00 0.000000e+00
 0.000000e+00 0.000000e+00 0.000000e+00
 0.000000e+00 0.000000e+00 0.000000e+00
 0.000000e+00 0.000000e+00 0.000000e+00
 0.000000e+00 0.000000e+00 0.000000e+00
 0.000000e+00 0.000000e+00 0.000000e+00
 0.000000e+00 0.000000e+00 0.000000e+00
 0.000000e+00 0.000000e+00 0.000000e+00
 0.000000e+00 0.000000e+00 0.000000e+00
 0.000000e+00 0.000000e+00 0.000000e+00
 0.000000e+00 0.000000e+00 0.000000e+00
 0.000000e+00 0.000000e+00 0.000000e+00
 0.000000e+00 0.000000e+00 0.000000e+00
 0.000000e+00 0.000000e+00 0.000000e+00
 0.000000e+00 0.000000e+00 0.000000e+00
 0.000000e+00 0.000000e+00 0.000000e+00
 0.000000e+00 0.000000e+00 0.000000e+00
 0.000000e+00 0.000000e+00 0.000000e+00
 0.000000e+00 0.000000e+00 0.000000e+00
 0.000000e+00 0.000000e+00 0.000000e+00
 0.000000e+00 0.000000e+00 0.000000e+00
 0.000000e+00 0.000000e+00 0.000000e+00
 0.000000e+00 0.000000e+00 0.000000e+00
 0.000000e+00 0.000000e+00 0.000000e+00
 0.000000e+00 0.000000e+00 0.000000e+00
 8.039592e-04 -2.957466e-01 0.000000e+00
 1.573411e-03 -3.455786e-01 0.000000e+00
 1.632483e-03 -3.508760e-01 0.000000e+00
 9.202167e-04 -3.073038e-01 0.000000e+00
 3.018809e-01 -5.880709e-04 0.000000e+00
 3.482168e-01 -1.358091e-03 0.000000e+00
 3.485432e-01 -1.280148e-03 0.000000e+00
 3.009072e-01 -4.351191e-04 0.000000e+00
 1.689510e-01 -1.748761e-01 0.000000e+00
 3.261302e-02 -3.440818e-01 0.000000e+00
 3.524862e-01 -3.426339e-02 0.000000e+00
 1.199193e-02 -1.213103e-02 0.000000e+00
 3.100801e-04 -1.889274e-01 0.000000e+00
 2.457695e-01 -2.823348e-04 0.000000e+00
 1.900515e-01 -5.909549e-05 0.000000e+00
 7.508878e-04 -2.461267e-01 0.000000e+00
 7.000558e-02 -2.698380e-01 0.000000e+00
 3.373863e-01 -1.520387e-01 0.000000e+00
 3.506785e-01 -4.694857e-03 0.000000e+00
 1.014051e-02 -3.521805e-01 0.000000e+00
 8.147730e-02 -8.321706e-02 0.000000e+00
 1.972858e-01 -5.452417e-02 0.000000e+00
 2.897445e-01 -3.307188e-02 0.000000e+00
 9.088332e-03 -3.087629e-01 0.000000e+00
 3.263946e-03 -3.347859e-01 0.000000e+00
 1.003051e-01 -3.598507e-01 0.000000e+00
 5.897141e-02 -1.847948e-01 0.000000e+00
 3.171994e-01 -7.251848e-03 0.000000e+00
 3.432702e-01 -7.267620e-03 0.000000e+00
 2.094260e-02 -2.821349e-01 0.000000e+00
 1.929087e-02 -3.450939e-01 0.000000e+00
 3.363682e-01 -1.590095e-03 0.000000e+00
 3.434188e-01 -1.513710e-03 0.000000e+00
 3.584514e-01 -7.652060e-02 0.000000e+00
 1.162025e-01 -3.385013e-02 0.000000e+00
 2.721805e-01 -7.508851e-02 0.000000e+00
 2.132351e-03 -2.757983e-01 0.000000e+00
 9.439246e-03 -3.476482e-01 0.000000e+00
 2.401367e-02 -4.922140e-02 0.000000e+00
 2.690865e-03 -2.692737e-01 0.000000e+00
 2.155055e-01 -9.324947e-03 0.000000e+00
 2.183160e-01 -2.844246e-01 0.000000e+00
 2.803765e-01 -9.976854e-03 0.000000e+00
 2.149998e-01 -2.214574e-02 0.000000e+00
 3.271690e-02 -2.056061e-01 0.000000e+00
 4.084088e-03 -3.515757e-01 0.000000e+00
 6.691169e-02 -3.288742e-01 0.000000e+00
 2.983573e-02 -2.527154e-01 0.000000e+00
 1.117211e-01 -2.237406e-01 0.000000e+00
 3.279084e-02 -1.123130e-01 0.000000e+00
 3.626590e-01 -2.968630e-02 0.000000e+00
 3.249063e-01 -5.942912e-02 0.000000e+00
 2.227858e-01 -1.230877e-01 0.000000e+00
 4.679660e-02 -3.614771e-01 0.000000e+00
 1.810895e-02 -3.514063e-01 0.000000e+00
 3.537142e-01 -1.302730e-02 0.000000e+00
 3.509594e-01 -1.933299e-03 0.000000e+00
 2.581659e-01 -6.886150e-04 0.000000e+00
 2.976077e-01 -6.039579e-04 0.000000e+00
 1.514952e-01 -1.034128e-01 0.000000e+00
 6.276528e-02 -3.539756e-01 0.000000e+00
 5.003591e-02 -2.537348e-02 0.000000e+00
 7.779661e-03 -3.250406e-01 0.000000e+00
 1.737981e-02 -2.974330e-01 0.000000e+00
 1.323903e-01 -1.544691e-02 0.000000e+00
 8.235586e-03 -2.617641e-01 0.000000e+00
 2.029614e-02 -3.203455e-01 0.000000e+00
 3.298250e-01 -3.895910e-03 0.000000e+00
 2.188380e-03 -3.359006e-01 0.000000e+00
 1.070867e-03 -2.636484e-01 0.000000e+00
 7.710010e-03 -3.313937e-01 0.000000e+00
 1.340793e-01 -3.017825e-01 0.000000e+00
 1.001457e-01 -1.514406e-01 0.000000e+00
 3.154181e-01 -2.610217e-01 0.000000e+00
 2.801342e-01 -3.898531e-03 0.000000e+00
 3.596034e-01 -7.680345e-02 0.000000e+00
 3.490989e-01 -4.592074e-03 0.000000e+00
 3.256594e-01 -3.065901e-02 0.000000e+00
 2.511230e-01 -2.006764e-01 0.000000e+00
 3.380326e-01 -1.756213e-02 0.000000e+00
 1.819731e-02 -1.350765e-01 0.000000e+00
 2.423530e-01 2.044729e-05 0.000000e+00
 4.476857e-02 -2.972470e-01 0.000000e+00
 2.565988e-01 -3.459625e-03 0.000000e+00
 3.659093e-02 -3.198681e-01 0.000000e+00
 6.771462e-02 -2.258253e-01 0.000000e+00
 2.934799e-03 -2.191356e-01 0.000000e+00
 2.644526e-01 -1.191068e-04 0.000000e+00
 6.343119e-03 -2.588860e-01 0.000000e+00
 1.014299e-02 -1.648337e-01 0.000000e+00
 8.273403e-03 -1.877989e-01 0.000000e+00
 1.629327e-02 -3.526651e-01 0.000000e+00
 2.644671e-02 -3.555205e-01 0.000000e+00
 3.585402e-01 -1.985510e-02 0.000000e+00
 5.125147e-03 -1.913360e-01 0.000000e+00
 1.577856e-02 -3.392474e-01 0.000000e+00
 1.675241e-01 -1.870223e-02 0.000000e+00
 5.252855e-03 -3.429499e-01 0.000000e+00
 1.827671e-01 -3.612280e-01 0.000000e+00
 1.779631e-01 -2.398991e-01 0.000000e+00
 2.515562e-01 -1.737398e-03 0.000000e+00
 2.828637e-01 -1.315562e-01 0.000000e+00
 3.437430e-01 -9.097705e-03 0.000000e+00
 1.862997e-01 1.052735e-04 0.000000e+00
 3.187566e-01 -1.002775e-01 0.000000e+00
 1.536730e-01 -6.356754e-05 0.000000e+00
 1.540101e-01 -8.426482e-05 0.000000e+00
 0.000000e+00 0.000000e+00 0.000000e+00
 2.379705e-01 -1.926396e-02 0.000000e+00
 2.930442e-01 -1.182927e-01 0.000000e+00
 0.000000e+00 0.000000e+00 0.000000e+00
 4.502548e-03 -1.017158e-02 0.000000e+00
 1.922254e-03 -1.900678e-03 0.000000e+00
 0.000000e+00 0.000000e+00 0.000000e+00
 3.635142e-01 -1.767555e-01 0.000000e+00
 2.917305e-01 -2.765701e-01 0.000000e+00
 3.285220e-04 -1.529262e-01 0.000000e+00
 2.561374e-04 -1.524509e-01 0.000000e+00
 0.000000e+00 0.000000e+00 0.000000e+00
 5.357019e-04 -2.547360e-01 0.000000e+00
 1.277058e-04 -1.108997e-01 0.000000e+00
 3.239644e-04 -2.052110e-01 0.000000e+00
 1.496789e-04 -1.103098e-01 0.000000e+00
 0.000000e+00 0.000000e+00 0.000000e+00
 5.986402e-04 -2.314451e-01 0.000000e+00
 4.224663e-04 -1.714630e-01 0.000000e+00
 2.856578e-02 -1.940144e-02 0.000000e+00
 2.470676e-02 -7.920286e-03 0.000000e+00
 1.042918e-02 -4.722555e-03 0.000000e+00
 1.040949e-03 -1.757551e-01 0.000000e+00
 6.922666e-04 -1.774299e-01 0.000000e+00
 0.000000e+00 0.000000e+00 0.000000e+00
 4.195161e-02 -8.726931e-03 0.000000e+00
 0.000000e+00 0.000000e+00 0.000000e+00
 0.000000e+00 0.000000e+00 0.000000e+00
 1.292982e-01 -2.406886e-02 0.000000e+00
 7.712688e-02 -5.276533e-03 0.000000e+00
 8.834480e-02 -1.101381e-02 0.000000e+00
 2.940127e-03 -2.467068e-01 0.000000e+00
 8.432534e-04 -1.348566e-01 0.000000e+00
 1.206263e-03 -1.321281e-01 0.000000e+00
 0.000000e+00 0.000000e+00 0.000000e+00
 3.899228e-02 -3.986092e-02 0.000000e+00
 1.867847e-02 -2.849603e-02 0.000000e+00
 6.867759e-02 -1.130850e-02 0.000000e+00
 0.000000e+00 0.000000e+00 0.000000e+00
 8.994706e-02 -4.793703e-03 0.000000e+00
 0.000000e+00 0.000000e+00 0.000000e+00
 1.509902e-01 -6.582061e-03 0.000000e+00
 1.370779e-01 -7.748240e-03 0.000000e+00
 0.000000e+00 0.000000e+00 0.000000e+00
 2.524193e-01 -4.689795e-02 0.000000e+00
 2.128055e-01 -3.723879e-02 0.000000e+00
 2.354574e-01 -6.701004e-02 0.000000e+00
 1.405090e-01 -2.438867e-03 0.000000e+00
 1.329501e-01 -3.366885e-03 0.000000e+00
 0.000000e+00 0.000000e+00 0.000000e+00
 2.515797e-01 -1.025663e-02 0.000000e+00
 1.920470e-01 -3.544912e-03 0.000000e+00
 2.318639e-01 -7.145956e-05 0.000000e+00
 1.701714e-01 4.462752e-05 0.000000e+00
 1.108131e-01 1.641054e-05 0.000000e+00
 6.881690e-03 -2.304968e-01 0.000000e+00
 1.443736e-03 -1.175633e-01 0.000000e+00
 2.666452e-03 -1.743135e-01 0.000000e+00
 1.826094e-03 -1.128489e-01 0.000000e+00
 0.000000e+00 0.000000e+00 0.000000e+00
 1.430473e-01 -2.321720e-01 0.000000e+00
 1.750992e-01 -2.062519e-01 0.000000e+00
 1.404576e-01 -2.016830e-01 0.000000e+00
 2.303506e-02 -2.494570e-01 0.000000e+00
 7.669774e-02 -2.977761e-01 0.000000e+00
 0.000000e+00 0.000000e+00 0.000000e+00
 3.244173e-02 -3.241651e-01 0.000000e+00
 9.127624e-03 -2.034734e-01 0.000000e+00
 1.035804e-02 -2.769972e-01 0.000000e+00
 2.667942e-03 -1.633744e-01 0.000000e+00
 4.875924e-03 -1.890980e-01 0.000000e+00
 1.698307e-03 -1.587706e-01 0.000000e+00
 0.000000e+00 0.000000e+00 0.000000e+00
 1.986798e-03 -3.414114e-01 0.000000e+00
 1.461753e-03 -3.212260e-01 0.000000e+00
 1.247610e-03 -3.318973e-01 0.000000e+00
 2.305325e-01 1.351315e-05 0.000000e+00
 1.079894e-01 7.784117e-05 0.000000e+00
 2.585783e-01 -2.324971e-04 0.000000e+00
 1.109337e-01 -3.797635e-05 0.000000e+00
 2.085591e-01 -1.641543e-04 0.000000e+00
 2.710120e-01 -6.105947e-03 0.000000e+00
 1.673393e-01 -1.015064e-03 0.000000e+00
 1.971024e-01 -2.386580e-03 0.000000e+00
 2.741030e-01 -3.319147e-04 0.000000e+00
 1.479953e-01 3.287488e-04 0.000000e+00
 2.024547e-01 1.957110e-04 0.000000e+00
 2.543811e-01 -2.475135e-03 0.000000e+00
 1.588512e-01 -7.146634e-04 0.000000e+00
 0.000000e+00 0.000000e+00 0.000000e+00
 1.478743e-01 5.060635e-04 0.000000e+00
 0.000000e+00 0.000000e+00 0.000000e+00
 2.951539e-03 -1.094706e-01 0.000000e+00
 2.439811e-03 -1.166495e-01 0.000000e+00
 0.000000e+00 0.000000e+00 0.000000e+00
 1.762569e-02 -2.305968e-01 0.000000e+00
 1.497257e-02 -2.445836e-01 0.000000e+00
 2.537637e-02 -2.688342e-01 0.000000e+00
 6.281605e-04 -1.781349e-01 0.000000e+00
 1.129213e-03 -1.802690e-01 0.000000e+00
 0.000000e+00 0.000000e+00 0.000000e+00
 2.559315e-02 -1.715421e-01 0.000000e+00
 5.770774e-03 -9.129343e-02 0.000000e+00
 1.089630e-02 -1.384270e-01 0.000000e+00
 3.475654e-01 -1.946800e-03 0.000000e+00
 3.500666e-01 -1.540851e-03 0.000000e+00
 3.440318e-01 -1.389768e-03 0.000000e+00
 1.773794e-01 3.659606e-04 0.000000e+00
 1.728897e-01 6.230835e-04 0.000000e+00
 0.000000e+00 0.000000e+00 0.000000e+00
 6.022426e-03 -7.787601e-02 0.000000e+00
 0.000000e+00 0.000000e+00 0.000000e+00
 1.059154e-02 -6.476940e-02 0.000000e+00
 1.035258e-02 -8.274357e-02 0.000000e+00
 0.000000e+00 0.000000e+00 0.000000e+00
 2.231923e-03 -3.514645e-01 0.000000e+00
 2.259321e-03 -3.497390e-01 0.000000e+00
 1.708835e-03 -3.507924e-01 0.000000e+00
 1.280869e-03 -3.241744e-01 0.000000e+00
 1.749903e-03 -3.466626e-01 0.000000e+00
 1.348413e-03 -3.414963e-01 0.000000e+00
 2.782574e-01 -4.361503e-04 0.000000e+00
 2.108470e-01 -2.118897e-04 0.000000e+00
 1.651902e-01 -1.114584e-04 0.000000e+00
 1.647339e-01 -2.205970e-04 0.000000e+00
 0.000000e+00 0.000000e+00 0.000000e+00
 3.483928e-01 -1.635168e-02 0.000000e+00
 3.450316e-01 -2.528429e-02 0.000000e+00
 3.541074e-01 -2.149271e-02 0.000000e+00
 3.506756e-01 -1.486205e-03 0.000000e+00
 3.509575e-01 -1.452111e-03 0.000000e+00
 1.456570e-03 -3.068279e-01 0.000000e+00
 8.114608e-04 -2.818377e-01 0.000000e+00
 4.266896e-04 -2.145607e-01 0.000000e+00
 1.862637e-01 -1.143780e-01 0.000000e+00
 1.609233e-01 -1.379009e-01 0.000000e+00
 1.977133e-01 -1.502227e-01 0.000000e+00
 1.265012e-01 -1.287001e-01 0.000000e+00
 1.332632e-01 -1.636955e-01 0.000000e+00
 4.995355e-02 -3.245726e-01 0.000000e+00
 3.564203e-02 -3.334825e-01 0.000000e+00
 4.743843e-02 -3.390774e-01 0.000000e+00
 3.093310e-01 -8.516380e-04 0.000000e+00
 3.238751e-01 -8.952626e-04 0.000000e+00
 3.608099e-01 -2.434292e-02 0.000000e+00
 3.576698e-01 -2.733907e-02 0.000000e+00
 3.616813e-01 -3.443374e-02 0.000000e+00
 3.290674e-01 -7.386931e-04 0.000000e+00
 3.464150e-01 -1.295899e-03 0.000000e+00
 3.368115e-01 -8.860908e-04 0.000000e+00
 2.214637e-02 -3.534579e-01 0.000000e+00
 3.046496e-02 -3.518171e-01 0.000000e+00
 2.462842e-02 -3.488882e-01 0.000000e+00
 2.380680e-03 -3.149755e-01 0.000000e+00
 1.258908e-03 -2.616457e-01 0.000000e+00
 3.419732e-01 -9.195097e-02 0.000000e+00
 3.284169e-01 -1.238289e-01 0.000000e+00
 3.539657e-01 -1.108120e-01 0.000000e+00
 7.400676e-03 -2.376733e-02 0.000000e+00
 7.911341e-03 -3.945087e-02 0.000000e+00
 0.000000e+00 0.000000e+00 0.000000e+00
 3.366471e-01 -1.020683e-03 0.000000e+00
 6.484289e-02 -1.369296e-01 0.000000e+00
 9.142507e-02 -1.167591e-01 0.000000e+00
 5.664397e-02 -1.031197e-01 0.000000e+00
 3.419250e-01 -6.978674e-02 0.000000e+00
 3.564275e-01 -5.133720e-02 0.000000e+00
 3.422655e-01 -4.756525e-02 0.000000e+00
 3.010523e-01 -6.958575e-02 0.000000e+00
 3.084256e-01 -4.664795e-02 0.000000e+00
 2.844265e-01 -5.182779e-02 0.000000e+00
 2.082152e-03 -3.123852e-01 0.000000e+00
 8.516986e-04 -2.815167e-01 0.000000e+00
 4.935200e-03 -3.506181e-01 0.000000e+00
 7.495717e-03 -3.493117e-01 0.000000e+00
 6.746166e-03 -3.519513e-01 0.000000e+00
 1.835949e-02 -3.313275e-01 0.000000e+00
 2.292621e-02 -3.417926e-01 0.000000e+00
 2.685258e-02 -3.339015e-01 0.000000e+00
 3.207229e-02 -2.303784e-01 0.000000e+00
 4.787174e-02 -2.655405e-01 0.000000e+00
 5.179149e-02 -2.420330e-01 0.000000e+00
 9.651989e-02 -3.198350e-01 0.000000e+00
 9.950258e-02 -2.847398e-01 0.000000e+00
 7.235807e-02 -3.015096e-01 0.000000e+00
 2.541150e-01 -3.267838e-01 0.000000e+00
 1.911111e-01 -3.516615e-01 0.000000e+00
 2.523770e-01 -4.052008e-04 0.000000e+00
 0.000000e+00 0.000000e+00 0.000000e+00
 3.211242e-01 -7.195810e-04 0.000000e+00
 2.848818e-01 -2.517670e-04 0.000000e+00
 3.335233e-01 -2.433635e-03 0.000000e+00
 3.448808e-01 -4.821533e-03 0.000000e+00
 3.465318e-01 -2.962199e-03 0.000000e+00
 3.807014e-02 -2.777385e-01 0.000000e+00
 5.668638e-02 -2.856245e-01 0.000000e+00
 1.122764e-02 -3.361844e-01 0.000000e+00
 1.263768e-02 -3.283191e-01 0.000000e+00
 8.570253e-03 -3.218427e-01 0.000000e+00
 6.065759e-02 -3.508903e-01 0.000000e+00
 6.934117e-02 -3.634853e-01 0.000000e+00
 8.346748e-02 -3.434071e-01 0.000000e+00
 3.501716e-01 -1.922394e-03 0.000000e+00
 3.508720e-01 -2.955115e-03 0.000000e+00
 3.509681e-01 -3.023986e-03 0.000000e+00
 3.183787e-01 -1.504651e-02 0.000000e+00
 3.303006e-01 -1.188801e-02 0.000000e+00
 3.015727e-01 -8.794592e-03 0.000000e+00
 3.532351e-01 -8.187724e-03 0.000000e+00
 3.519831e-01 -5.083920e-03 0.000000e+00
 3.518446e-01 -7.799955e-03 0.000000e+00
 2.523604e-01 -1.292025e-01 0.000000e+00
 2.778470e-01 -1.012393e-01 0.000000e+00
 2.503357e-01 -9.917952e-02 0.000000e+00
 3.738884e-01 -8.491013e-02 0.000000e+00
 3.703923e-01 -1.333926e-01 0.000000e+00
 1.387744e-01 -6.712378e-02 0.000000e+00
 1.774848e-01 -7.870644e-02 0.000000e+00
 1.570731e-01 -4.501862e-02 0.000000e+00
 1.500495e-01 -1.723681e-02 0.000000e+00
 1.106554e-01 -5.902207e-03 0.000000e+00
 1.074930e-01 -1.870693e-01 0.000000e+00
 7.900372e-02 -1.706942e-01 0.000000e+00
 8.464338e-02 -2.052259e-01 0.000000e+00
 3.260153e-01 -4.326450e-02 0.000000e+00
 3.096532e-01 -3.294567e-02 0.000000e+00
 6.525002e-03 -3.504168e-01 0.000000e+00
 1.019719e-02 -3.514852e-01 0.000000e+00
 1.202018e-02 -3.443671e-01 0.000000e+00
 1.298883e-02 -3.524213e-01 0.000000e+00
 9.675541e-03 -3.464310e-01 0.000000e+00
 1.416546e-02 -2.999679e-01 0.000000e+00
 2.129111e-02 -3.040006e-01 0.000000e+00
 1.364026e-02 -2.757388e-01 0.000000e+00
 3.976420e-03 -3.473579e-01 0.000000e+00
 8.179847e-02 -3.023228e-02 0.000000e+00
 6.825328e-02 -5.260896e-02 0.000000e+00
 1.036425e-01 -5.867057e-02 0.000000e+00
 2.873115e-02 -7.956508e-02 0.000000e+00
 5.072208e-02 -6.887329e-02 0.000000e+00
 5.095222e-03 -3.111029e-01 0.000000e+00
 5.270275e-03 -2.937631e-01 0.000000e+00
 8.850369e-03 -3.416085e-01 0.000000e+00
 5.216142e-03 -3.333855e-01 0.000000e+00
 5.898599e-03 -3.431338e-01 0.000000e+00
 3.328937e-01 -2.356224e-02 0.000000e+00
 3.107147e-01 -1.937730e-02 0.000000e+00
 2.191289e-01 -1.500740e-02 0.000000e+00
 2.569586e-01 -2.931432e-02 0.000000e+00
 2.643673e-01 -2.022375e-02 0.000000e+00
 5.578285e-02 -3.648582e-01 0.000000e+00
 8.968312e-02 -3.725141e-01 0.000000e+00
 3.355191e-01 -2.012487e-01 0.000000e+00
 1.606269e-01 -3.619836e-04 0.000000e+00
 0.000000e+00 0.000000e+00 0.000000e+00
 2.904741e-01 -1.935140e-02 0.000000e+00
 8.838600e-02 -2.262555e-01 0.000000e+00
 6.965824e-02 -2.481507e-01 0.000000e+00
 9.093652e-02 -2.499165e-01 0.000000e+00
 2.509681e-02 -1.270293e-01 0.000000e+00
 3.696050e-02 -1.671994e-01 0.000000e+00
 4.628264e-02 -1.492277e-01 0.000000e+00
 6.605938e-03 -3.358976e-01 0.000000e+00
 3.774544e-03 -3.219843e-01 0.000000e+00
 4.250523e-03 -3.038032e-01 0.000000e+00
 2.145771e-01 -2.241739e-01 0.000000e+00
 1.980161e-01 -2.612922e-01 0.000000e+00
 2.405445e-01 -2.426212e-01 0.000000e+00
 2.755564e-02 -3.209508e-01 0.000000e+00
 2.917407e-02 -3.048147e-01 0.000000e+00
 3.763163e-03 -9.184231e-02 0.000000e+00
 3.222422e-03 -1.009878e-01 0.000000e+00
 0.000000e+00 0.000000e+00 0.000000e+00
 4.098336e-02 -3.095590e-01 0.000000e+00
 5.644553e-02 -3.131063e-01 0.000000e+00
 1.584225e-01 -2.734371e-01 0.000000e+00
 1.262105e-01 -2.610466e-01 0.000000e+00
 4.959761e-02 -2.193066e-01 0.000000e+00
 6.399376e-02 -2.056797e-01 0.000000e+00
 4.515853e-02 -1.983603e-01 0.000000e+00
 3.384870e-01 -6.167142e-03 0.000000e+00
 3.483883e-01 -6.691514e-03 0.000000e+00
 3.404157e-01 -1.600412e-02 0.000000e+00
 3.235734e-01 -6.157980e-03 0.000000e+00
 3.526011e-01 -1.481573e-02 0.000000e+00
 3.025013e-01 -1.166595e-01 0.000000e+00
 2.946847e-01 -8.896052e-02 0.000000e+00
 3.676553e-01 -5.232877e-02 0.000000e+00
 3.644974e-01 -4.639770e-02 0.000000e+00
 2.120574e-01 -8.694081e-02 0.000000e+00
 2.849451e-01 -2.336658e-01 0.000000e+00
 2.640831e-01 -2.842763e-01 0.000000e+00
 0.000000e+00 0.000000e+00 0.000000e+00
 4.076754e-02 -3.532053e-01 0.000000e+00
 3.486033e-02 -3.578957e-01 0.000000e+00
 2.364523e-02 -3.544914e-01 0.000000e+00
 3.074647e-02 -3.564353e-01 0.000000e+00
 1.334504e-02 -3.495564e-01 0.000000e+00
 1.383647e-02 -3.527106e-01 0.000000e+00
 3.346738e-01 -2.333509e-03 0.000000e+00
 3.469823e-01 -5.823857e-03 0.000000e+00
 3.240573e-01 -2.403101e-03 0.000000e+00
 3.560694e-01 -1.608229e-02 0.000000e+00
 3.543272e-01 -1.296496e-02 0.000000e+00
 3.544643e-01 -1.135514e-02 0.000000e+00
 3.061532e-01 -1.944567e-03 0.000000e+00
 3.118155e-01 -1.252468e-03 0.000000e+00
 2.603203e-01 -7.807363e-04 0.000000e+00
 3.107128e-01 -2.573915e-03 0.000000e+00
 3.461158e-01 -2.528092e-03 0.000000e+00
 1.157559e-01 -9.425441e-02 0.000000e+00
 1.220244e-01 -3.764576e-01 0.000000e+00
 1.339619e-01 -3.644471e-01 0.000000e+00
 7.524367e-03 -3.002246e-01 0.000000e+00
 1.259845e-02 -3.168404e-01 0.000000e+00
 1.242724e-02 -3.352697e-01 0.000000e+00
 2.937208e-03 -2.356098e-01 0.000000e+00
 3.416299e-02 -3.520641e-01 0.000000e+00
 1.957580e-02 -3.296348e-01 0.000000e+00
 1.723972e-01 -3.357782e-02 0.000000e+00
 1.914685e-01 -2.071182e-02 0.000000e+00
 1.896418e-01 -3.505396e-02 0.000000e+00
 6.619824e-03 -1.905643e-01 0.000000e+00
 1.200287e-02 -2.500617e-01 0.000000e+00
 5.088549e-03 -2.439412e-01 0.000000e+00
 5.859627e-03 -2.764800e-01 0.000000e+00
 9.055249e-03 -2.888722e-01 0.000000e+00
 1.750697e-02 -3.464311e-01 0.000000e+00
 1.251123e-02 -3.442653e-01 0.000000e+00
 1.387745e-02 -3.164517e-01 0.000000e+00
 3.414224e-01 -1.274926e-02 0.000000e+00
 3.340406e-01 -8.640087e-03 0.000000e+00
 3.034135e-01 -3.018279e-03 0.000000e+00
 2.937840e-01 -3.976373e-03 0.000000e+00
 3.242554e-01 -5.379769e-03 0.000000e+00
 3.460498e-03 -3.395433e-01 0.000000e+00
 3.198208e-03 -3.494657e-01 0.000000e+00
 1.722887e-03 -2.668598e-01 0.000000e+00
 3.376794e-03 -3.133307e-01 0.000000e+00
 1.226325e-01 -3.355862e-01 0.000000e+00
 1.604338e-01 -3.317910e-01 0.000000e+00
 2.089607e-01 -3.248277e-01 0.000000e+00
 1.732257e-01 -2.977203e-01 0.000000e+00
 3.184752e-01 -2.288975e-02 0.000000e+00
 3.229047e-01 -7.798028e-02 0.000000e+00
 3.291566e-01 -1.249488e-03 0.000000e+00
 3.402523e-01 -3.432778e-02 0.000000e+00
 2.369715e-01 -1.591944e-01 0.000000e+00