<?xml version="1.0"?>
<VTKFile type="UnstructuredGrid"  version="0.1"  >
<UnstructuredGrid>
<Piece  NumberOfPoints="505" NumberOfCells="928">
<Points>
<DataArray  type="Float32"  NumberOfComponents="3"  format="ascii">
0 0 0
1 0 0
0 1 0
1 0.5 0
0.5 0.5 0
0.5 1 0
0.1 0 0
0.2 0 0
0.3 0 0
0.4 0 0
0.5 0 0
0.6 0 0
0.7 0 0
0.8 0 0
0.9 0 0
0 0.9 0
0 0.8 0
0 0.7 0
0 0.6 0
0 0.5 0
0 0.4 0
0 0.3 0
0 0.2 0
0 0.1 0
0.9 0.5 0
0.8 0.5 0
0.7 0.5 0
0.6 0.5 0
0.5 0.6 0
0.5 0.7 0
0.5 0.8 0
0.5 0.9 0
0.1 1 0
0.2 1 0
0.3 1 0
0.4 1 0
1 0.1 0
1 0.2 0
1 0.3 0
1 0.4 0
0.300178 0.296564 0
0.247566 0.664879 0
0.639694 0.259804 0
0.06564 0.06472 0
0.04439 0.954144 0
0.932418 0.064715 0
0.951013 0.456419 0
0.437622 0.939659 0
0.195334 0.464441 0
0.483382 0.329596 0
0.834786 0.236295 0
0.307228 0.81139 0
0.178229 0.173372 0
0.366998 0.134199 0
0.547485 0.14214 0
0.124832 0.74927 0
0.160163 0.896658 0
0.342556 0.535243 0
0.147651 0.342018 0
0.729803 0.127878 0
0.725981 0.357775 0
0.121369 0.600441 0
0.372954 0.70814 0
0.908503 0.151525 0
0.89851 0.333305 0
0.556275 0.400898 0
0.259184 0.092178 0
0.46329 0.194362 0
0.423773 0.869712 0
0.22823 0.818162 0
0.081292 0.144905 0
0.082979 0.831935 0
0.549999 0.065419 0
0.371537 0.407588 0
0.642628 0.097865 0
0.459835 0.086595 0
0.108565 0.418567 0
0.273082 0.902112 0
0.256598 0.556659 0
0.11951 0.509541 0
0.234147 0.370527 0
0.097453 0.253261 0
0.638438 0.342389 0
0.554656 0.224779 0
0.373432 0.237603 0
0.339663 0.62579 0
0.27079 0.747786 0
0.733958 0.266592 0
0.928527 0.244458 0
0.853116 0.071497 0
0.818426 0.404817 0
0.280194 0.200604 0
0.417859 0.565185 0
0.147241 0.079056 0
0.389149 0.789957 0
0.42808 0.654642 0
0.343469 0.059202 0
0.086765 0.684153 0
0.162043 0.675011 0
0.809252 0.14201 0
0.364337 0.928607 0
0.077532 0.916553 0
0.159064 0.807906 0
0.302124 0.454032 0
0.205909 0.272176 0
0.449664 0.407415 0
0.66041 0.423241 0
0.562201 0.303789 0
0.802658 0.320211 0
0.614551 0.182931 0
0.390944 0.331035 0
0.687136 0.18846 0
0.070577 0.342498 0
0.741087 0.437361 0
0.176989 0.547528 0
0.710251 0.07409 0
0.192845 0.608574 0
0.171114 0.398277 0
0.058959 0.753084 0
0.904 0.425508 0
0.438039 0.730373 0
0.057223 0.475897 0
0.058502 0.552106 0
0.330493 0.750997 0
0.312295 0.699131 0
0.684882 0.307111 0
0.053312 0.627311 0
0.198798 0.743695 0
0.392326 0.069953 0
0.351519 0.860283 0
0.397134 0.477694 0
0.319385 0.371198 0
0.767351 0.069505 0
0.441954 0.271171 0
0.759504 0.192785 0
0.855661 0.457701 0
0.500847 0.264652 0
0.916209 0.0323575 0
0.966209 0.0323575 0
0.95 0 0
0.578137 0.450449 0
0.528137 0.450449 0
0.55 0.5 0
0.03282 0.08236 0
0.03282 0.03236 0
0 0.05 0
0.502969 0.404157 0
0.474832 0.453708 0
0.468811 0.91983 0
0.468811 0.96983 0
0.5 0.95 0
0.072195 0.977072 0
0.022195 0.977072 0
0.05 1 0
0.022195 0.927072 0
0 0.95 0
0.060961 0.935348 0
0.038766 0.908276 0
0.106441 0.071888 0
0.123621 0.039528 0
0.08282 0.03236 0
0.0414895 0.815967 0
0.0414895 0.865968 0
0 0.85 0
0.173621 0.039528 0
0.15 0 0
0.05 0 0
0.301327 0.07569 0
0.321735 0.029601 0
0.279592 0.046089 0
0.070969 0.792509 0
0.0294795 0.776542 0
0.0294795 0.726542 0
0 0.75 0
0.114267 0.111981 0
0.073466 0.104813 0
0.229592 0.046089 0
0.25 0 0
0.371735 0.029601 0
0.35 0 0
0.479917 0.0432975 0
0.429918 0.0432975 0
0.45 0 0
0.461562 0.140479 0
0.413416 0.110397 0
0.415144 0.16428 0
0.574999 0.0327095 0
0.525 0.0327095 0
0.55 0 0
0.596313 0.081642 0
0.621314 0.0489325 0
0.927507 0.440964 0
0.902 0.462754 0
0.925507 0.47821 0
0.0700385 0.655732 0
0.026656 0.663655 0
0.0433825 0.692076 0
0.026656 0.613655 0
0 0.65 0
0.276766 0.370862 0
0.309781 0.333881 0
0.267162 0.333545 0
0.458929 0.582593 0
0.458929 0.532593 0
0.5 0.55 0
0.422969 0.609913 0
0.46404 0.627321 0
0.43306 0.692508 0
0.46902 0.715186 0
0.46404 0.677321 0
0.46902 0.765186 0
0.5 0.75 0
0.180082 0.948329 0
0.130082 0.948329 0
0.15 1 0
0.87983 0.441605 0
0.87783 0.478851 0
0.975507 0.42821 0
0.975507 0.47821 0
1 0.45 0
0.676439 0.0859775 0
0.705125 0.037045 0
0.671314 0.0489325 0
0.779756 0.421089 0
0.770544 0.46868 0
0.809213 0.452408 0
0.738801 0.0717975 0
0.733675 0.0347525 0
0.95 0.5 0
0.720544 0.46868 0
0.75 0.5 0
0.029251 0.526053 0
0.029251 0.576053 0
0 0.55 0
0.089006 0.530824 0
0.0899355 0.576273 0
0.12044 0.554991 0
0.461886 0.884856 0
0.461886 0.834856 0
0.5 0.85 0
0.089571 0.380533 0
0.0352885 0.371249 0
0.0542825 0.409284 0
0.918515 0.197991 0
0.964263 0.222229 0
0.954252 0.175762 0
0.630205 0.46162 0
0.680205 0.46162 0
0.65 0.5 0
0.0352885 0.321249 0
0 0.35 0
0.0487265 0.226631 0
0.0487265 0.276631 0
0 0.25 0
0.286541 0.951056 0
0.236541 0.951056 0
0.25 1 0
0.382169 0.964303 0
0.332168 0.964303 0
0.35 1 0
0.966209 0.0823575 0
1 0.05 0
0.876558 0.0357485 0
0.826558 0.0357485 0
0.85 0 0
0.710547 0.227526 0
0.663415 0.224132 0
0.686826 0.263198 0
0.964263 0.272229 0
1 0.25 0
0.40098 0.934133 0
0.418811 0.96983 0
0.45 1 0
0.326813 0.219104 0
0.290186 0.248584 0
0.336805 0.267084 0
0.243052 0.23639 0
0.253043 0.28437 0
0.224721 0.582616 0
0.220205 0.636726 0
0.252082 0.610769 0
0.92046 0.10812 0
0.954252 0.125762 0
0.66166 0.32475 0
0.662288 0.283458 0
0.639066 0.301096 0
0.949255 0.366653 0
0.949255 0.316653 0
1 0.35 0
0.291542 0.723459 0
0.27993 0.682005 0
0.259178 0.706333 0
0.394055 0.89916 0
0.430698 0.904686 0
0.531524 0.28422 0
0.492115 0.297124 0
0.522791 0.316692 0
0.040646 0.122453 0
0.040646 0.172453 0
0 0.15 0
1 0.15 0
0.151681 0.262718 0
0.192069 0.222774 0
0.137841 0.213317 0
0.558428 0.264284 0
0.600947 0.281797 0
0.597175 0.242291 0
0.508973 0.20957 0
0.551071 0.183459 0
0.505387 0.168251 0
0.118847 0.906605 0
0.088766 0.958276 0
0.3123 0.881198 0
0.329373 0.835836 0
0.290155 0.856751 0
0.18042 0.709353 0
0.223182 0.704287 0
0.204805 0.669945 0
0.114037 0.464054 0
0.157422 0.486991 0
0.15195 0.441504 0
0.279361 0.505346 0
0.248729 0.459236 0
0.225966 0.51055 0
0.423399 0.442555 0
0.448567 0.488847 0
0.892767 0.068106 0
0.65 0 0
0.901255 0.379406 0
0.952 0.412754 0
0.858877 0.146767 0
0.822019 0.189153 0
0.871644 0.19391 0
0.14825 0.528535 0
0.186162 0.505985 0
0.178931 0.775801 0
0.161815 0.746482 0
0.141948 0.778588 0
0.29813 0.591225 0
0.34111 0.580516 0
0.299577 0.545951 0
0.913519 0.288882 0
0.881657 0.240376 0
0.866648 0.2848 0
0.664882 0.143162 0
0.708469 0.158169 0
0.686215 0.112871 0
0.768308 0.293401 0
0.818722 0.278253 0
0.784372 0.251443 0
0.407693 0.254387 0
0.452622 0.232766 0
0.418361 0.215983 0
0.559238 0.352343 0
0.519829 0.365247 0
0.269689 0.146391 0
0.323596 0.167402 0
0.313091 0.113188 0
0.367897 0.0645775 0
0.396163 0.0349765 0
0.220028 0.321352 0
0.17678 0.307097 0
0.190899 0.356272 0
0.584604 0.203855 0
0.581018 0.162535 0
0.250656 0.860137 0
0.267729 0.814776 0
0.359821 0.770477 0
0.31886 0.781193 0
0.348189 0.800674 0
0.124404 0.679582 0
0.141706 0.637726 0
0.104067 0.642297 0
0.216622 0.899385 0
0.203213 0.085617 0
0.162735 0.126214 0
0.218707 0.132775 0
0.0893725 0.199083 0
0.129761 0.159139 0
0.121022 0.819921 0
0.103905 0.790602 0
0.193647 0.813034 0
0.159614 0.852282 0
0.194196 0.85741 0
0.650843 0.185696 0
0.628589 0.140398 0
0.504917 0.076007 0
0.50366 0.114367 0
0.548742 0.103779 0
0.378761 0.595487 0
0.380208 0.550214 0
0.466523 0.368506 0
0.783675 0.0347525 0
0.75 0 0
0.595056 0.120002 0
0.20263 0.384402 0
0.183224 0.431359 0
0.214741 0.417484 0
0.084015 0.29788 0
0.109114 0.342258 0
0.122552 0.29764 0
0.370334 0.82512 0
0.387646 0.864998 0
0.406461 0.829835 0
0.355164 0.351116 0
0.345461 0.389393 0
0.38124 0.369312 0
0.177444 0.641792 0
0.157107 0.604507 0
0.0286115 0.437949 0
0.0286115 0.487949 0
0 0.45 0
0.184917 0.578051 0
0.216794 0.552094 0
0.310754 0.412615 0
0.268135 0.41228 0
0.13984 0.408422 0
0.159382 0.370147 0
0.128108 0.380293 0
0.784378 0.167398 0
0.797145 0.21454 0
0.649424 0.382815 0
0.693196 0.390508 0
0.682209 0.350082 0
0.471401 0.267911 0
0.482069 0.229507 0
0.600319 0.323089 0
0.597356 0.371644 0
0.370215 0.185901 0
0.420304 0.369225 0
0.410601 0.407502 0
0.5 0.65 0
0.293615 0.645334 0
0.325979 0.66246 0
0.342624 0.703635 0
0.356309 0.666965 0
0.24951 0.782974 0
0.289009 0.779588 0
0.810542 0.362514 0
0.76432 0.338993 0
0.772204 0.381296 0
0.70942 0.286852 0
0.705431 0.332443 0
0.729969 0.312184 0
0.831184 0.106754 0
0.88081 0.111511 0
0.700748 0.430301 0
0.733534 0.397568 0
0.850584 0.326758 0
0.229212 0.186988 0
0.407496 0.52144 0
0.369845 0.506468 0
0.413594 0.760165 0
0.405497 0.719256 0
0.381051 0.749049 0
0.444574 0.794979 0
0.383872 0.640216 0
0.400517 0.681391 0
0.355233 0.0967005 0
0.42608 0.078274 0
0.379662 0.102076 0
0.055907 0.589708 0
0.0873405 0.613876 0
0.072862 0.718619 0
0.0918955 0.751177 0
0.105798 0.716711 0
0.234794 0.74574 0
0.213514 0.780928 0
0.143437 0.712141 0
0.72332 0.190623 0
0.744653 0.160332 0
0.788301 0.105758 0
0.748577 0.0986915 0
0.769527 0.134944 0
0.357928 0.894445 0
0.318709 0.915359 0
0.0802555 0.874244 0
0.121571 0.864297 0
0.32234 0.494638 0
0.349629 0.465863 0
0.384335 0.442641 0
0.336831 0.43081 0
0.608343 0.412069 0
0.527752 0.244716 0
0.858468 0.369061 0
0.627123 0.221367 0
0.382188 0.284319 0
0.345561 0.3138 0
0.437163 0.330315 0
0.746731 0.229689 0
0.149179 0.573985 0
0.720027 0.100984 0
0.810234 0.070501 0
0.861213 0.415162 0
0.827831 0.478851 0
0.85 0.5 0
0.082894 0.447232 0
0.0883665 0.492719 0
0.0578625 0.514002 0
0.300642 0.749391 0
0.351723 0.729569 0
0.321394 0.725064 0
0.416449 0.301103 0
0.462668 0.300384 0
0.837044 0.431259 0
</DataArray>
</Points>
<Cells>
<DataArray  type="UInt32"  Name="connectivity"  format="ascii">
1 138 139 
14 137 139 
45 137 138 
137 138 139 
4 141 142 
27 140 142 
65 140 141 
140 141 142 
0 144 145 
23 143 145 
43 143 144 
143 144 145 
4 141 147 
65 141 146 
105 146 147 
141 146 147 
5 149 150 
31 148 150 
47 148 149 
148 149 150 
2 152 153 
32 151 153 
44 151 152 
151 152 153 
2 152 155 
15 154 155 
44 152 154 
152 154 155 
15 154 157 
44 154 156 
101 156 157 
154 156 157 
6 159 160 
43 158 160 
93 158 159 
158 159 160 
15 162 163 
16 161 163 
71 161 162 
161 162 163 
6 159 165 
7 164 165 
93 159 164 
159 164 165 
[...]
<PointData  Vectors="u"> 
<DataArray  type="Float32"  Name="u"  NumberOfComponents="3" format="ascii">
 0.000000e+00 0.000000e+00 0.000000e+00
 0.000000e+00 0.000000e+00 0.000000e+00
 0.000000e+00 0.000000e+00 0.000000e+00
 0.000000e+00 0.000000e+00 0.000000e+00
 0.000000e+00 0.000000e+00 0.000000e+00
 0.000000e+00 0.000000e+00 0.000000e+00
 0.000000e+00 0.000000e+00 0.000000e+00
 0.000000e+00 0.000000e+00 0.000000e+00
 0.000000e+00 0.000000e+00 0.000000e+00
 0.000000e+00 0.000000e+00 0.000000e+00
 0.000000e+00 0.000000e+00 0.000000e+00
 0.000000e+00 0.000000e+00 0.000000e+00
 0.000000e+00 0.000000e+00 0.000000e+00
 0.000000e+00 0.000000e+00 0.000000e+00
 0.000000e+00 0.000000e+00 0.000000e+00
 0.000000e+00 0.000000e+00 0.000000e+00
 0.000000e+00 0.000000e+00 0.000000e+00
 0.000000e+00 0.000000e+00 0.000000e+00
 0.000000e+00 0.000000e+00 0.000000e+00
 0.000000e+00 0.000000e+00 0.000000e+00
 0.000000e+00 0.000000e+00 0.000000e+00
 0.000000e+00 0.000000e+00 0.000000e+00
 0.000000e+00 0.000000e+00 0.000000e+00
 0.000000e+00 0.000000e+00 0.000000e+00
 0.000000e+00 0.000000e+00 0.000000e+00
 0.000000e+00 0.000000e+00 0.000000e+00
 0.000000e+00 0.000000e+00 0.000000e+00
 0.000000e+00 0.000000e+00 0.000000e+00
 0.000000e+00 0.000000e+00 0.000000e+00
 0.000000e+00 0.000000e+00 0.000000e+00
 0.000000e+00 0.000000e+00 0.000000e+00
 0.000000e+00 0.000000e+00 0.000000e+00
 -6.846421e-05 1.646541e-01 0.000000e+00
 -1.925880e-04 1.456152e-01 0.000000e+00
 -1.686795e-04 1.440383e-01 0.000000e+00
 -1.235455e-05 1.623398e-01 0.000000e+00
 -1.639001e-01 7.756155e-03 0.000000e+00
 -1.437918e-01 1.595520e-02 0.000000e+00
 -1.453767e-01 1.696879e-02 0.000000e+00
 -1.639911e-01 8.928420e-03 0.000000e+00
 -6.896592e-02 4.117245e-02 0.000000e+00
 -1.378175e-02 1.367058e-01 0.000000e+00
 -1.338663e-01 3.055806e-02 0.000000e+00
 -8.807396e-03 8.517598e-03 0.000000e+00
 -2.293307e-05 1.106629e-01 0.000000e+00
 -1.360571e-01 3.864027e-03 0.000000e+00
 -1.095616e-01 2.739891e-03 0.000000e+00
 -2.484133e-05 1.354644e-01 0.000000e+00
 -3.456321e-02 1.112788e-01 0.000000e+00
 -1.660530e-01 5.481600e-02 0.000000e+00
 -1.329127e-01 2.188336e-02 0.000000e+00
 -3.305265e-03 1.475782e-01 0.000000e+00
 -5.002322e-02 4.189060e-02 0.000000e+00
 -8.451107e-02 1.140504e-02 0.000000e+00
 -1.037271e-01 1.521684e-02 0.000000e+00
 -3.628561e-03 1.630689e-01 0.000000e+00
 -1.182362e-03 1.586106e-01 0.000000e+00
 -5.750045e-02 1.713585e-01 0.000000e+00
 -2.979487e-02 9.478152e-02 0.000000e+00
 -1.334865e-01 1.438537e-02 0.000000e+00
 -1.948264e-01 2.104310e-02 0.000000e+00
 -9.700967e-03 1.520852e-01 0.000000e+00
 -4.262605e-03 1.712847e-01 0.000000e+00
 -1.528037e-01 1.272992e-02 0.000000e+00
 -1.630658e-01 1.583627e-02 0.000000e+00
 -2.363817e-01 4.200163e-02 0.000000e+00
 -6.711700e-02 1.179429e-02 0.000000e+00
 -9.076293e-02 1.852931e-02 0.000000e+00
 -2.975864e-04 1.498719e-01 0.000000e+00
 -3.674732e-03 1.387157e-01 0.000000e+00
 -1.801797e-02 3.565530e-02 0.000000e+00
 -9.182937e-04 1.550965e-01 0.000000e+00
 -9.072095e-02 4.820282e-03 0.000000e+00
 -1.273829e-01 1.111802e-01 0.000000e+00
 -1.175776e-01 1.004284e-02 0.000000e+00
 -9.001619e-02 6.408603e-03 0.000000e+00
 -1.677762e-02 1.190407e-01 0.000000e+00
 -1.370866e-03 1.385866e-01 0.000000e+00
 -3.365583e-02 1.297091e-01 0.000000e+00
 -1.474889e-02 1.383726e-01 0.000000e+00
 -5.153495e-02 7.457220e-02 0.000000e+00
 -1.984768e-02 7.413476e-02 0.000000e+00
 -1.971402e-01 2.946754e-02 0.000000e+00
 -1.092870e-01 2.660726e-02 0.000000e+00
 -8.022995e-02 2.338423e-02 0.000000e+00
 -1.855936e-02 1.698863e-01 0.000000e+00
 -6.643104e-03 1.395192e-01 0.000000e+00
 -1.395296e-01 2.780299e-02 0.000000e+00
 -1.357280e-01 1.790121e-02 0.000000e+00
 -1.346559e-01 4.404721e-03 0.000000e+00
 -1.826406e-01 9.518544e-03 0.000000e+00
 -6.787119e-02 2.656322e-02 0.000000e+00
 -2.913031e-02 1.841955e-01 0.000000e+00
 -3.539658e-02 1.524643e-02 0.000000e+00
 -1.519655e-03 1.669438e-01 0.000000e+00
 -1.666091e-03 1.532344e-01 0.000000e+00
 -6.539544e-02 3.978268e-03 0.000000e+00
 -3.325075e-03 1.517100e-01 0.000000e+00
 -8.831280e-03 1.515386e-01 0.000000e+00
 -1.434456e-01 1.437782e-02 0.000000e+00
 -4.231769e-04 1.634135e-01 0.000000e+00
 -2.520621e-04 1.523102e-01 0.000000e+00
 -3.074283e-03 1.576641e-01 0.000000e+00
 -7.401193e-02 1.127178e-01 0.000000e+00
 -4.799390e-02 5.865520e-02 0.000000e+00
 -2.029501e-01 1.156757e-01 0.000000e+00
 -1.996173e-01 1.232555e-02 0.000000e+00
 -1.620192e-01 3.731883e-02 0.000000e+00
 -1.651826e-01 2.148980e-02 0.000000e+00
 -1.106230e-01 2.279295e-02 0.000000e+00
 -1.156555e-01 5.742150e-02 0.000000e+00
 -1.198981e-01 2.388447e-02 0.000000e+00
 -9.970450e-03 8.936043e-02 0.000000e+00
 -1.658649e-01 6.224135e-03 0.000000e+00
 -2.183115e-02 1.335350e-01 0.000000e+00
 -1.185320e-01 6.188098e-03 0.000000e+00
 -1.705885e-02 1.379164e-01 0.000000e+00
 -3.309005e-02 1.019312e-01 0.000000e+00
 -9.881942e-04 1.301387e-01 0.000000e+00
 -1.572262e-01 5.561549e-03 0.000000e+00
 -2.853464e-04 1.374473e-01 0.000000e+00
 -5.040471e-03 1.044526e-01 0.000000e+00
 -3.805204e-03 1.160533e-01 0.000000e+00
 -4.792078e-03 1.573949e-01 0.000000e+00
 -9.012733e-03 1.529933e-01 0.000000e+00
 -1.662051e-01 2.885973e-02 0.000000e+00
 -2.090376e-03 1.164801e-01 0.000000e+00
 -6.407531e-03 1.438796e-01 0.000000e+00
 -7.660348e-02 4.545912e-03 0.000000e+00
 -1.417931e-03 1.611512e-01 0.000000e+00
 -1.238118e-01 1.826053e-01 0.000000e+00
 -8.586706e-02 7.107040e-02 0.000000e+00
 -1.228636e-01 5.050335e-03 0.000000e+00
 -1.066790e-01 3.333762e-02 0.000000e+00
 -1.279896e-01 2.255274e-02 0.000000e+00
 -1.159667e-01 2.167254e-03 0.000000e+00
 -1.190510e-01 3.250228e-02 0.000000e+00
 -8.400693e-02 1.173115e-03 0.000000e+00
 -8.744544e-02 1.779360e-03 0.000000e+00
 0.000000e+00 0.000000e+00 0.000000e+00
 -1.825553e-01 1.625713e-02 0.000000e+00
 -2.086928e-01 5.251190e-02 0.000000e+00
 0.000000e+00 0.000000e+00 0.000000e+00
 -3.352200e-03 7.136994e-03 0.000000e+00
 -1.039164e-03 1.035956e-03 0.000000e+00
 0.000000e+00 0.000000e+00 0.000000e+00
 -2.354910e-01 7.885671e-02 0.000000e+00
 -2.096761e-01 1.309167e-01 0.000000e+00
 2.606354e-06 8.303282e-02 0.000000e+00
 2.168019e-05 8.303135e-02 0.000000e+00
 0.000000e+00 0.000000e+00 0.000000e+00
 -5.151394e-05 1.478304e-01 0.000000e+00
 2.692221e-06 6.352162e-02 0.000000e+00
 -1.577610e-05 1.202173e-01 0.000000e+00
 -2.736031e-06 6.343419e-02 0.000000e+00
 0.000000e+00 0.000000e+00 0.000000e+00
 -9.985414e-05 1.354994e-01 0.000000e+00
 -4.938888e-05 1.002745e-01 0.000000e+00
 -2.106691e-02 1.307718e-02 0.000000e+00
 -1.680258e-02 4.983172e-03 0.000000e+00
 -6.943226e-03 3.110348e-03 0.000000e+00
 -3.018963e-04 1.041624e-01 0.000000e+00
 -1.588305e-04 1.047152e-01 0.000000e+00
 0.000000e+00 0.000000e+00 0.000000e+00
 -2.706763e-02 4.618783e-03 0.000000e+00
 0.000000e+00 0.000000e+00 0.000000e+00
 0.000000e+00 0.000000e+00 0.000000e+00
 -6.886529e-02 6.956757e-03 0.000000e+00
 -3.813297e-02 1.456522e-03 0.000000e+00
 -4.860846e-02 3.574935e-03 0.000000e+00
 -9.981705e-04 1.445896e-01 0.000000e+00
 -2.145612e-04 7.952587e-02 0.000000e+00
 -3.406419e-04 7.859750e-02 0.000000e+00
 0.000000e+00 0.000000e+00 0.000000e+00
 -2.892732e-02 2.680394e-02 0.000000e+00
 -1.438438e-02 2.073423e-02 0.000000e+00
 -4.126807e-02 4.660939e-03 0.000000e+00
 0.000000e+00 0.000000e+00 0.000000e+00
 -4.156412e-02 1.226538e-03 0.000000e+00
 0.000000e+00 0.000000e+00 0.000000e+00
 -6.453651e-02 2.235978e-03 0.000000e+00
 -6.046198e-02 2.135730e-03 0.000000e+00
 0.000000e+00 0.000000e+00 0.000000e+00
 -9.326583e-02 1.227304e-02 0.000000e+00
 -8.925649e-02 8.629883e-03 0.000000e+00
 -8.641496e-02 1.374926e-02 0.000000e+00
 -5.981190e-02 1.588618e-03 0.000000e+00
 -5.588000e-02 1.509413e-03 0.000000e+00
 0.000000e+00 0.000000e+00 0.000000e+00
 -1.055560e-01 7.317045e-03 0.000000e+00
 -8.458956e-02 3.198367e-03 0.000000e+00
 -1.367122e-01 3.956856e-03 0.000000e+00
 -1.017035e-01 1.706293e-03 0.000000e+00
 -6.358030e-02 7.928610e-04 0.000000e+00
 -2.812779e-03 1.375451e-01 0.000000e+00
 -4.612776e-04 7.077394e-02 0.000000e+00
 -9.029091e-04 1.048798e-01 0.000000e+00
 -6.860992e-04 6.887975e-02 0.000000e+00
 0.000000e+00 0.000000e+00 0.000000e+00
 -6.611845e-02 6.857504e-02 0.000000e+00
 -7.620371e-02 5.305424e-02 0.000000e+00
 -6.136689e-02 5.646122e-02 0.000000e+00
 -4.772497e-03 1.148231e-01 0.000000e+00
 -5.137706e-02 1.465625e-01 0.000000e+00
 0.000000e+00 0.000000e+00 0.000000e+00
 -8.207487e-03 1.664251e-01 0.000000e+00
 3.358132e-04 9.559046e-02 0.000000e+00
 -5.310569e-04 1.448742e-01 0.000000e+00
 1.972631e-04 8.323620e-02 0.000000e+00
 3.845065e-04 9.399563e-02 0.000000e+00
 9.183043e-05 8.307744e-02 0.000000e+00
 0.000000e+00 0.000000e+00 0.000000e+00
 -5.124122e-04 1.520869e-01 0.000000e+00
 -3.396186e-04 1.664324e-01 0.000000e+00
 -1.396986e-04 1.621552e-01 0.000000e+00
 -1.410668e-01 3.690326e-03 0.000000e+00
 -6.455914e-02 6.386140e-04 0.000000e+00
 -1.464001e-01 5.822972e-03 0.000000e+00
 -6.054176e-02 1.419357e-03 0.000000e+00
 -1.171676e-01 3.954164e-03 0.000000e+00
 -1.195214e-01 8.115836e-03 0.000000e+00
 -7.787744e-02 1.864241e-03 0.000000e+00
 -9.013968e-02 3.196010e-03 0.000000e+00
 -1.783135e-01 7.971767e-03 0.000000e+00
 -9.871363e-02 1.745552e-03 0.000000e+00
 -1.311842e-01 3.073760e-03 0.000000e+00
 -1.208670e-01 5.633460e-03 0.000000e+00
 -7.614731e-02 1.625343e-03 0.000000e+00
 0.000000e+00 0.000000e+00 0.000000e+00
 -1.038725e-01 2.143271e-03 0.000000e+00
 0.000000e+00 0.000000e+00 0.000000e+00
 -1.332351e-03 6.887711e-02 0.000000e+00
 -1.013718e-03 7.225341e-02 0.000000e+00
 0.000000e+00 0.000000e+00 0.000000e+00
 -8.531029e-03 1.364864e-01 0.000000e+00
 -6.958034e-03 1.432415e-01 0.000000e+00
 -1.222362e-02 1.459815e-01 0.000000e+00
 -2.645445e-05 9.726680e-02 0.000000e+00
 -4.213317e-05 9.758624e-02 0.000000e+00
 0.000000e+00 0.000000e+00 0.000000e+00
 -1.354553e-02 1.066254e-01 0.000000e+00
 -3.012279e-03 6.159609e-02 0.000000e+00
 -5.626378e-03 9.046533e-02 0.000000e+00
 -1.405053e-01 1.628043e-02 0.000000e+00
 -1.381132e-01 1.691886e-02 0.000000e+00
 -1.496717e-01 1.435034e-02 0.000000e+00
 -1.374595e-01 5.288758e-03 0.000000e+00
 -1.277898e-01 3.652415e-03 0.000000e+00
 0.000000e+00 0.000000e+00 0.000000e+00
 -3.325914e-03 5.412771e-02 0.000000e+00
 0.000000e+00 0.000000e+00 0.000000e+00
 -6.992314e-03 4.756549e-02 0.000000e+00
 -6.234878e-03 5.894414e-02 0.000000e+00
 0.000000e+00 0.000000e+00 0.000000e+00
 -5.124323e-04 1.408235e-01 0.000000e+00
 -5.569200e-04 1.378643e-01 0.000000e+00
 -2.020375e-04 1.370338e-01 0.000000e+00
 -1.130088e-04 1.649907e-01 0.000000e+00
 -2.563318e-04 1.542729e-01 0.000000e+00
 -9.481478e-05 1.597554e-01 0.000000e+00
 -1.546148e-01 5.935735e-03 0.000000e+00
 -1.216283e-01 3.380959e-03 0.000000e+00
 -8.820082e-02 1.272789e-03 0.000000e+00
 -8.494776e-02 1.370156e-03 0.000000e+00
 0.000000e+00 0.000000e+00 0.000000e+00
 -1.253058e-01 2.727963e-02 0.000000e+00
 -1.208868e-01 2.780771e-02 0.000000e+00
 -1.373772e-01 2.954243e-02 0.000000e+00
 -1.388135e-01 1.756750e-02 0.000000e+00
 -1.366109e-01 1.760929e-02 0.000000e+00
 -1.749626e-04 1.621693e-01 0.000000e+00
 -1.221242e-05 1.531342e-01 0.000000e+00
 2.365771e-05 1.184312e-01 0.000000e+00
 -7.258809e-02 2.278769e-02 0.000000e+00
 -6.571841e-02 3.221100e-02 0.000000e+00
 -7.561350e-02 3.073365e-02 0.000000e+00
 -5.830900e-02 4.033991e-02 0.000000e+00
 -5.750641e-02 4.709293e-02 0.000000e+00
 -2.411307e-02 1.305449e-01 0.000000e+00
 -1.603711e-02 1.357794e-01 0.000000e+00
 -2.194502e-02 1.349252e-01 0.000000e+00
 -1.589945e-01 8.202694e-03 0.000000e+00
 -1.629648e-01 1.005331e-02 0.000000e+00
 -1.813242e-01 2.900389e-02 0.000000e+00
 -1.496241e-01 3.052074e-02 0.000000e+00
 -1.631696e-01 3.155603e-02 0.000000e+00
 -1.685359e-01 1.224370e-02 0.000000e+00
 -1.524180e-01 1.610915e-02 0.000000e+00
 -1.622711e-01 1.391281e-02 0.000000e+00
 -7.789713e-03 1.449102e-01 0.000000e+00
 -1.182942e-02 1.424788e-01 0.000000e+00
 -9.687859e-03 1.381831e-01 0.000000e+00
 -4.383718e-04 1.641773e-01 0.000000e+00
 -1.294512e-04 1.432613e-01 0.000000e+00
 -1.396882e-01 3.619010e-02 0.000000e+00
 -1.402734e-01 4.147692e-02 0.000000e+00
 -1.671622e-01 4.439427e-02 0.000000e+00
 -5.769368e-03 1.768208e-02 0.000000e+00
 -5.778201e-03 2.964133e-02 0.000000e+00
 0.000000e+00 0.000000e+00 0.000000e+00
 -1.599661e-01 1.236080e-02 0.000000e+00
 -3.531285e-02 7.268917e-02 0.000000e+00
 -4.904817e-02 5.158821e-02 0.000000e+00
 -3.482041e-02 6.079948e-02 0.000000e+00
 -1.294410e-01 3.207136e-02 0.000000e+00
 -1.466156e-01 3.283266e-02 0.000000e+00
 -1.213989e-01 2.948174e-02 0.000000e+00
 -9.892621e-02 2.269303e-02 0.000000e+00
 -1.020732e-01 2.096264e-02 0.000000e+00
 -9.629539e-02 1.699872e-02 0.000000e+00
 -6.700226e-04 1.668688e-01 0.000000e+00
 -1.207619e-04 1.599519e-01 0.000000e+00
 -1.536082e-03 1.481890e-01 0.000000e+00
 -2.259845e-03 1.545583e-01 0.000000e+00
 -2.287950e-03 1.421412e-01 0.000000e+00
 -7.701087e-03 1.479671e-01 0.000000e+00
 -9.465490e-03 1.381869e-01 0.000000e+00
 -1.168666e-02 1.399207e-01 0.000000e+00
 -1.608954e-02 1.294254e-01 0.000000e+00
 -2.379929e-02 1.272065e-01 0.000000e+00
 -2.578851e-02 1.185412e-01 0.000000e+00
 -5.215882e-02 1.246336e-01 0.000000e+00
 -5.064331e-02 1.026038e-01 0.000000e+00
 -3.641162e-02 1.175577e-01 0.000000e+00
 -1.737971e-01 1.571646e-01 0.000000e+00
 -1.398222e-01 1.769467e-01 0.000000e+00
 -1.357425e-01 3.920451e-03 0.000000e+00
 0.000000e+00 0.000000e+00 0.000000e+00
 -1.755555e-01 1.114161e-02 0.000000e+00
 -1.611232e-01 7.282961e-03 0.000000e+00
 -1.487599e-01 1.339385e-02 0.000000e+00
 -1.347790e-01 1.942068e-02 0.000000e+00
 -1.381598e-01 1.759974e-02 0.000000e+00
 -1.866721e-02 1.377471e-01 0.000000e+00
 -2.808766e-02 1.233374e-01 0.000000e+00
 -4.540425e-03 1.505329e-01 0.000000e+00
 -5.166373e-03 1.550881e-01 0.000000e+00
 -3.427578e-03 1.615321e-01 0.000000e+00
 -2.920680e-02 1.492173e-01 0.000000e+00
 -3.380491e-02 1.736428e-01 0.000000e+00
 -4.420371e-02 1.450617e-01 0.000000e+00
 -1.443366e-01 1.796035e-02 0.000000e+00
 -1.345827e-01 1.954821e-02 0.000000e+00
 -1.444148e-01 2.012732e-02 0.000000e+00
 -1.214085e-01 1.748012e-02 0.000000e+00
 -1.260181e-01 1.946146e-02 0.000000e+00
 -1.266991e-01 1.245577e-02 0.000000e+00
 -1.525736e-01 2.536643e-02 0.000000e+00
 -1.433571e-01 2.303138e-02 0.000000e+00
 -1.343633e-01 2.515021e-02 0.000000e+00
 -9.076994e-02 2.750024e-02 0.000000e+00
 -9.468217e-02 2.432969e-02 0.000000e+00
 -8.576074e-02 2.005832e-02 0.000000e+00
 -2.082583e-01 4.270968e-02 0.000000e+00
 -2.138000e-01 5.782251e-02 0.000000e+00
 -7.211266e-02 2.026291e-02 0.000000e+00
 -7.698270e-02 1.699719e-02 0.000000e+00
 -7.864878e-02 1.158137e-02 0.000000e+00
 -7.124360e-02 4.249424e-03 0.000000e+00
 -4.957084e-02 1.541994e-03 0.000000e+00
 -4.885192e-02 6.530154e-02 0.000000e+00
 -3.891895e-02 7.682355e-02 0.000000e+00
 -4.020399e-02 8.405973e-02 0.000000e+00
 -1.082416e-01 2.475661e-02 0.000000e+00
 -1.068053e-01 1.909139e-02 0.000000e+00
 -2.428008e-03 1.371542e-01 0.000000e+00
 -3.723819e-03 1.383805e-01 0.000000e+00
 -2.886858e-03 1.656568e-01 0.000000e+00
 -3.996049e-03 1.521726e-01 0.000000e+00
 -2.596751e-03 1.614914e-01 0.000000e+00
 -6.035761e-03 1.592936e-01 0.000000e+00
 -9.601489e-03 1.536143e-01 0.000000e+00
 -5.939781e-03 1.549284e-01 0.000000e+00
 -1.455742e-03 1.410635e-01 0.000000e+00
 -5.306569e-02 1.421596e-02 0.000000e+00
 -4.659264e-02 2.957700e-02 0.000000e+00
 -6.251177e-02 2.456801e-02 0.000000e+00
 -1.955700e-02 5.561550e-02 0.000000e+00
 -3.517740e-02 4.353750e-02 0.000000e+00
 -1.919969e-03 1.655381e-01 0.000000e+00
 -1.966283e-03 1.631299e-01 0.000000e+00
 -3.541792e-03 1.465720e-01 0.000000e+00
 -2.017486e-03 1.582717e-01 0.000000e+00
 -2.301054e-03 1.469202e-01 0.000000e+00
 -1.153540e-01 2.362767e-02 0.000000e+00
 -1.159915e-01 1.685518e-02 0.000000e+00
 -9.118390e-02 5.661029e-03 0.000000e+00
 -9.917295e-02 1.038488e-02 0.000000e+00
 -1.043242e-01 9.889078e-03 0.000000e+00
 -2.334246e-02 1.871165e-01 0.000000e+00
 -5.027811e-02 1.939405e-01 0.000000e+00
 -1.922467e-01 7.959944e-02 0.000000e+00
 -8.010505e-02 1.451035e-03 0.000000e+00
 0.000000e+00 0.000000e+00 0.000000e+00
 -1.119544e-01 1.315092e-02 0.000000e+00
 -4.200133e-02 8.762194e-02 0.000000e+00
 -3.415851e-02 1.062752e-01 0.000000e+00
 -4.378988e-02 9.350898e-02 0.000000e+00
 -1.437427e-02 8.407438e-02 0.000000e+00
 -1.965612e-02 1.001234e-01 0.000000e+00
 -2.519073e-02 8.762958e-02 0.000000e+00
 -1.580799e-03 1.657974e-01 0.000000e+00
 -7.886115e-04 1.654962e-01 0.000000e+00
 -7.583340e-04 1.612232e-01 0.000000e+00
 -1.021689e-01 6.499260e-02 0.000000e+00
 -1.045738e-01 8.817725e-02 0.000000e+00
 -1.261270e-01 8.219343e-02 0.000000e+00
 -1.239354e-02 1.448092e-01 0.000000e+00
 -1.357793e-02 1.466860e-01 0.000000e+00
 -1.795594e-03 5.980535e-02 0.000000e+00
 -1.512858e-03 6.448897e-02 0.000000e+00
 0.000000e+00 0.000000e+00 0.000000e+00
 -1.961135e-02 1.361411e-01 0.000000e+00
 -2.791770e-02 1.265222e-01 0.000000e+00
 -8.340537e-02 9.259033e-02 0.000000e+00
 -6.229756e-02 8.542432e-02 0.000000e+00
 -2.479128e-02 1.136359e-01 0.000000e+00
 -3.153980e-02 9.866842e-02 0.000000e+00
 -2.307168e-02 1.087422e-01 0.000000e+00
 -1.349614e-01 1.861560e-02 0.000000e+00
 -1.301142e-01 2.280042e-02 0.000000e+00
 -2.166162e-01 2.237706e-02 0.000000e+00
 -2.084528e-01 1.720254e-02 0.000000e+00
 -1.971877e-01 2.487372e-02 0.000000e+00
 -1.135553e-01 3.302254e-02 0.000000e+00
 -9.937227e-02 2.483776e-02 0.000000e+00
 -1.825450e-01 3.455976e-02 0.000000e+00
 -2.211215e-01 3.243820e-02 0.000000e+00
 -7.997844e-02 1.629066e-02 0.000000e+00
 -1.575699e-01 8.633094e-02 0.000000e+00
 -1.643666e-01 1.205120e-01 0.000000e+00
 0.000000e+00 0.000000e+00 0.000000e+00
 -1.681388e-02 1.477955e-01 0.000000e+00
 -1.259394e-02 1.607989e-01 0.000000e+00
 -6.811766e-03 1.643505e-01 0.000000e+00
 -9.251155e-03 1.718047e-01 0.000000e+00
 -5.026734e-03 1.373218e-01 0.000000e+00
 -4.783934e-03 1.429118e-01 0.000000e+00
 -1.841597e-01 1.613265e-02 0.000000e+00
 -1.797979e-01 2.158225e-02 0.000000e+00
 -1.939018e-01 1.496471e-02 0.000000e+00
 -1.511186e-01 2.861823e-02 0.000000e+00
 -1.827987e-01 2.562212e-02 0.000000e+00
 -1.666260e-01 2.618358e-02 0.000000e+00
 -1.482660e-01 9.006629e-03 0.000000e+00
 -1.549749e-01 8.754830e-03 0.000000e+00
 -1.827717e-01 8.663964e-03 0.000000e+00
 -1.995213e-01 1.371778e-02 0.000000e+00
 -1.642004e-01 1.834333e-02 0.000000e+00
 -6.098597e-02 3.443545e-02 0.000000e+00
 -7.735619e-02 1.996045e-01 0.000000e+00
 -8.538309e-02 1.822589e-01 0.000000e+00
 -9.783187e-04 1.592618e-01 0.000000e+00
 -1.698513e-03 1.654408e-01 0.000000e+00
 -2.426888e-03 1.690973e-01 0.000000e+00
 -1.931986e-04 1.275675e-01 0.000000e+00
 -9.520832e-03 1.791298e-01 0.000000e+00
 -3.152749e-03 1.704591e-01 0.000000e+00
 -8.148369e-02 7.817814e-03 0.000000e+00
 -8.358226e-02 5.295983e-03 0.000000e+00
 -8.502343e-02 7.878409e-03 0.000000e+00
 -2.867192e-03 1.168396e-01 0.000000e+00
 -5.355931e-03 1.462502e-01 0.000000e+00
 -1.912492e-03 1.437249e-01 0.000000e+00
 -2.223480e-03 1.576894e-01 0.000000e+00
 -3.619936e-03 1.605016e-01 0.000000e+00
 -6.854179e-03 1.376819e-01 0.000000e+00
 -4.945647e-03 1.410256e-01 0.000000e+00
 -5.800337e-03 1.585003e-01 0.000000e+00
 -1.241423e-01 2.347609e-02 0.000000e+00
 -1.309692e-01 1.898364e-02 0.000000e+00
 -1.421000e-01 9.766337e-03 0.000000e+00
 -1.348677e-01 9.449087e-03 0.000000e+00
 -1.388841e-01 1.457440e-02 0.000000e+00
 -8.468578e-04 1.623516e-01 0.000000e+00
 -8.974588e-04 1.500382e-01 0.000000e+00
 -5.319887e-04 1.539503e-01 0.000000e+00
 -1.228699e-03 1.663345e-01 0.000000e+00
 -7.168176e-02 1.439126e-01 0.000000e+00
 -9.896671e-02 1.466698e-01 0.000000e+00
 -1.355779e-01 1.479874e-01 0.000000e+00
 -9.905313e-02 1.147809e-01 0.000000e+00
 -2.218499e-01 2.193194e-02 0.000000e+00
 -1.132920e-01 2.897348e-02 0.000000e+00
 -1.794439e-01 1.334597e-02 0.000000e+00
 -1.167415e-01 2.756588e-02 0.000000e+00