<?xml version="1.0"?>
<VTKFile type="UnstructuredGrid"  version="0.1"  >
<UnstructuredGrid>
<Piece  NumberOfPoints="505" NumberOfCells="928">
<Points>
<DataArray  type="Float32"  NumberOfComponents="3"  format="ascii">
0 0 0
1 0 0
0 1 0
1 0.5 0
0.5 0.5 0
0.5 1 0
0.1 0 0
0.2 0 0
0.3 0 0
0.4 0 0
0.5 0 0
0.6 0 0
0.7 0 0
0.8 0 0
0.9 0 0
0 0.9 0
0 0.8 0
0 0.7 0
0 0.6 0
0 0.5 0
0 0.4 0
0 0.3 0
0 0.2 0
0 0.1 0
0.9 0.5 0
0.8 0.5 0
0.7 0.5 0
0.6 0.5 0
0.5 0.6 0
0.5 0.7 0
0.5 0.8 0
0.5 0.9 0
0.1 1 0
0.2 1 0
0.3 1 0
0.4 1 0
1 0.1 0
1 0.2 0
1 0.3 0
1 0.4 0
0.300178 0.296564 0
0.247566 0.664879 0
0.639694 0.259804 0
0.06564 0.06472 0
0.04439 0.954144 0
0.932418 0.064715 0
0.951013 0.456419 0
0.437622 0.939659 0
0.195334 0.464441 0
0.483382 0.329596 0
0.834786 0.236295 0
0.307228 0.81139 0
0.178229 0.173372 0
0.366998 0.134199 0
0.547485 0.14214 0
0.124832 0.74927 0
0.160163 0.896658 0
0.342556 0.535243 0
0.147651 0.342018 0
0.729803 0.127878 0
0.725981 0.357775 0
0.121369 0.600441 0
0.372954 0.70814 0
0.908503 0.151525 0
0.89851 0.333305 0
0.556275 0.400898 0
0.259184 0.092178 0
0.46329 0.194362 0
0.423773 0.869712 0
0.22823 0.818162 0
0.081292 0.144905 0
0.082979 0.831935 0
0.549999 0.065419 0
0.371537 0.407588 0
0.642628 0.097865 0
0.459835 0.086595 0
0.108565 0.418567 0
0.273082 0.902112 0
0.256598 0.556659 0
0.11951 0.509541 0
0.234147 0.370527 0
0.097453 0.253261 0
0.638438 0.342389 0
0.554656 0.224779 0
0.373432 0.237603 0
0.339663 0.62579 0
0.27079 0.747786 0
0.733958 0.266592 0
0.928527 0.244458 0
0.853116 0.071497 0
0.818426 0.404817 0
0.280194 0.200604 0
0.417859 0.565185 0
0.147241 0.079056 0
0.389149 0.789957 0
0.42808 0.654642 0
0.343469 0.059202 0
0.086765 0.684153 0
0.162043 0.675011 0
0.809252 0.14201 0
0.364337 0.928607 0
0.077532 0.916553 0
0.159064 0.807906 0
0.302124 0.454032 0
0.205909 0.272176 0
0.449664 0.407415 0
0.66041 0.423241 0
0.562201 0.303789 0
0.802658 0.320211 0
0.614551 0.182931 0
0.390944 0.331035 0
0.687136 0.18846 0
0.070577 0.342498 0
0.741087 0.437361 0
0.176989 0.547528 0
0.710251 0.07409 0
0.192845 0.608574 0
0.171114 0.398277 0
0.058959 0.753084 0
0.904 0.425508 0
0.438039 0.730373 0
0.057223 0.475897 0
0.058502 0.552106 0
0.330493 0.750997 0
0.312295 0.699131 0
0.684882 0.307111 0
0.053312 0.627311 0
0.198798 0.743695 0
0.392326 0.069953 0
0.351519 0.860283 0
0.397134 0.477694 0
0.319385 0.371198 0
0.767351 0.069505 0
0.441954 0.271171 0
0.759504 0.192785 0
0.855661 0.457701 0
0.500847 0.264652 0
0.916209 0.0323575 0
0.966209 0.0323575 0
0.95 0 0
0.578137 0.450449 0
0.528137 0.450449 0
0.55 0.5 0
0.03282 0.08236 0
0.03282 0.03236 0
0 0.05 0
0.502969 0.404157 0
0.474832 0.453708 0
0.468811 0.91983 0
0.468811 0.96983 0
0.5 0.95 0
0.072195 0.977072 0
0.022195 0.977072 0
0.05 1 0
0.022195 0.927072 0
0 0.95 0
0.060961 0.935348 0
0.038766 0.908276 0
0.106441 0.071888 0
0.123621 0.039528 0
0.08282 0.03236 0
0.0414895 0.815967 0
0.0414895 0.865968 0
0 0.85 0
0.173621 0.039528 0
0.15 0 0
0.05 0 0
0.301327 0.07569 0
0.321735 0.029601 0
0.279592 0.046089 0
0.070969 0.792509 0
0.0294795 0.776542 0
0.0294795 0.726542 0
0 0.75 0
0.114267 0.111981 0
0.073466 0.104813 0
0.229592 0.046089 0
0.25 0 0
0.371735 0.029601 0
0.35 0 0
0.479917 0.0432975 0
0.429918 0.0432975 0
0.45 0 0
0.461562 0.140479 0
0.413416 0.110397 0
0.415144 0.16428 0
0.574999 0.0327095 0
0.525 0.0327095 0
0.55 0 0
0.596313 0.081642 0
0.621314 0.0489325 0
0.927507 0.440964 0
0.902 0.462754 0
0.925507 0.47821 0
0.0700385 0.655732 0
0.026656 0.663655 0
0.0433825 0.692076 0
0.026656 0.613655 0
0 0.65 0
0.276766 0.370862 0
0.309781 0.333881 0
0.267162 0.333545 0
0.458929 0.582593 0
0.458929 0.532593 0
0.5 0.55 0
0.422969 0.609913 0
0.46404 0.627321 0
0.43306 0.692508 0
0.46902 0.715186 0
0.46404 0.677321 0
0.46902 0.765186 0
0.5 0.75 0
0.180082 0.948329 0
0.130082 0.948329 0
0.15 1 0
0.87983 0.441605 0
0.87783 0.478851 0
0.975507 0.42821 0
0.975507 0.47821 0
1 0.45 0
0.676439 0.0859775 0
0.705125 0.037045 0
0.671314 0.0489325 0
0.779756 0.421089 0
0.770544 0.46868 0
0.809213 0.452408 0
0.738801 0.0717975 0
0.733675 0.0347525 0
0.95 0.5 0
0.720544 0.46868 0
0.75 0.5 0
0.029251 0.526053 0
0.029251 0.576053 0
0 0.55 0
0.089006 0.530824 0
0.0899355 0.576273 0
0.12044 0.554991 0
0.461886 0.884856 0
0.461886 0.834856 0
0.5 0.85 0
0.089571 0.380533 0
0.0352885 0.371249 0
0.0542825 0.409284 0
0.918515 0.197991 0
0.964263 0.222229 0
0.954252 0.175762 0
0.630205 0.46162 0
0.680205 0.46162 0
0.65 0.5 0
0.0352885 0.321249 0
0 0.35 0
0.0487265 0.226631 0
0.0487265 0.276631 0
0 0.25 0
0.286541 0.951056 0
0.236541 0.951056 0
0.25 1 0
0.382169 0.964303 0
0.332168 0.964303 0
0.35 1 0
0.966209 0.0823575 0
1 0.05 0
0.876558 0.0357485 0
0.826558 0.0357485 0
0.85 0 0
0.710547 0.227526 0
0.663415 0.224132 0
0.686826 0.263198 0
0.964263 0.272229 0
1 0.25 0
0.40098 0.934133 0
0.418811 0.96983 0
0.45 1 0
0.326813 0.219104 0
0.290186 0.248584 0
0.336805 0.267084 0
0.243052 0.23639 0
0.253043 0.28437 0
0.224721 0.582616 0
0.220205 0.636726 0
0.252082 0.610769 0
0.92046 0.10812 0
0.954252 0.125762 0
0.66166 0.32475 0
0.662288 0.283458 0
0.639066 0.301096 0
0.949255 0.366653 0
0.949255 0.316653 0
1 0.35 0
0.291542 0.723459 0
0.27993 0.682005 0
0.259178 0.706333 0
0.394055 0.89916 0
0.430698 0.904686 0
0.531524 0.28422 0
0.492115 0.297124 0
0.522791 0.316692 0
0.040646 0.122453 0
0.040646 0.172453 0
0 0.15 0
1 0.15 0
0.151681 0.262718 0
0.192069 0.222774 0
0.137841 0.213317 0
0.558428 0.264284 0
0.600947 0.281797 0
0.597175 0.242291 0
0.508973 0.20957 0
0.551071 0.183459 0
0.505387 0.168251 0
0.118847 0.906605 0
0.088766 0.958276 0
0.3123 0.881198 0
0.329373 0.835836 0
0.290155 0.856751 0
0.18042 0.709353 0
0.223182 0.704287 0
0.204805 0.669945 0
0.114037 0.464054 0
0.157422 0.486991 0
0.15195 0.441504 0
0.279361 0.505346 0
0.248729 0.459236 0
0.225966 0.51055 0
0.423399 0.442555 0
0.448567 0.488847 0
0.892767 0.068106 0
0.65 0 0
0.901255 0.379406 0
0.952 0.412754 0
0.858877 0.146767 0
0.822019 0.189153 0
0.871644 0.19391 0
0.14825 0.528535 0
0.186162 0.505985 0
0.178931 0.775801 0
0.161815 0.746482 0
0.141948 0.778588 0
0.29813 0.591225 0
0.34111 0.580516 0
0.299577 0.545951 0
0.913519 0.288882 0
0.881657 0.240376 0
0.866648 0.2848 0
0.664882 0.143162 0
0.708469 0.158169 0
0.686215 0.112871 0
0.768308 0.293401 0
0.818722 0.278253 0
0.784372 0.251443 0
0.407693 0.254387 0
0.452622 0.232766 0
0.418361 0.215983 0
0.559238 0.352343 0
0.519829 0.365247 0
0.269689 0.146391 0
0.323596 0.167402 0
0.313091 0.113188 0
0.367897 0.0645775 0
0.396163 0.0349765 0
0.220028 0.321352 0
0.17678 0.307097 0
0.190899 0.356272 0
0.584604 0.203855 0
0.581018 0.162535 0
0.250656 0.860137 0
0.267729 0.814776 0
0.359821 0.770477 0
0.31886 0.781193 0
0.348189 0.800674 0
0.124404 0.679582 0
0.141706 0.637726 0
0.104067 0.642297 0
0.216622 0.899385 0
0.203213 0.085617 0
0.162735 0.126214 0
0.218707 0.132775 0
0.0893725 0.199083 0
0.129761 0.159139 0
0.121022 0.819921 0
0.103905 0.790602 0
0.193647 0.813034 0
0.159614 0.852282 0
0.194196 0.85741 0
0.650843 0.185696 0
0.628589 0.140398 0
0.504917 0.076007 0
0.50366 0.114367 0
0.548742 0.103779 0
0.378761 0.595487 0
0.380208 0.550214 0
0.466523 0.368506 0
0.783675 0.0347525 0
0.75 0 0
0.595056 0.120002 0
0.20263 0.384402 0
0.183224 0.431359 0
0.214741 0.417484 0
0.084015 0.29788 0
0.109114 0.342258 0
0.122552 0.29764 0
0.370334 0.82512 0
0.387646 0.864998 0
0.406461 0.829835 0
0.355164 0.351116 0
0.345461 0.389393 0
0.38124 0.369312 0
0.177444 0.641792 0
0.157107 0.604507 0
0.0286115 0.437949 0
0.0286115 0.487949 0
0 0.45 0
0.184917 0.578051 0
0.216794 0.552094 0
0.310754 0.412615 0
0.268135 0.41228 0
0.13984 0.408422 0
0.159382 0.370147 0
0.128108 0.380293 0
0.784378 0.167398 0
0.797145 0.21454 0
0.649424 0.382815 0
0.693196 0.390508 0
0.682209 0.350082 0
0.471401 0.267911 0
0.482069 0.229507 0
0.600319 0.323089 0
0.597356 0.371644 0
0.370215 0.185901 0
0.420304 0.369225 0
0.410601 0.407502 0
0.5 0.65 0
0.293615 0.645334 0
0.325979 0.66246 0
0.342624 0.703635 0
0.356309 0.666965 0
0.24951 0.782974 0
0.289009 0.779588 0
0.810542 0.362514 0
0.76432 0.338993 0
0.772204 0.381296 0
0.70942 0.286852 0
0.705431 0.332443 0
0.729969 0.312184 0
0.831184 0.106754 0
0.88081 0.111511 0
0.700748 0.430301 0
0.733534 0.397568 0
0.850584 0.326758 0
0.229212 0.186988 0
0.407496 0.52144 0
0.369845 0.506468 0
0.413594 0.760165 0
0.405497 0.719256 0
0.381051 0.749049 0
0.444574 0.794979 0
0.383872 0.640216 0
0.400517 0.681391 0
0.355233 0.0967005 0
0.42608 0.078274 0
0.379662 0.102076 0
0.055907 0.589708 0
0.0873405 0.613876 0
0.072862 0.718619 0
0.0918955 0.751177 0
0.105798 0.716711 0
0.234794 0.74574 0
0.213514 0.780928 0
0.143437 0.712141 0
0.72332 0.190623 0
0.744653 0.160332 0
0.788301 0.105758 0
0.748577 0.0986915 0
0.769527 0.134944 0
0.357928 0.894445 0
0.318709 0.915359 0
0.0802555 0.874244 0
0.121571 0.864297 0
0.32234 0.494638 0
0.349629 0.465863 0
0.384335 0.442641 0
0.336831 0.43081 0
0.608343 0.412069 0
0.527752 0.244716 0
0.858468 0.369061 0
0.627123 0.221367 0
0.382188 0.284319 0
0.345561 0.3138 0
0.437163 0.330315 0
0.746731 0.229689 0
0.149179 0.573985 0
0.720027 0.100984 0
0.810234 0.070501 0
0.861213 0.415162 0
0.827831 0.478851 0
0.85 0.5 0
0.082894 0.447232 0
0.0883665 0.492719 0
0.0578625 0.514002 0
0.300642 0.749391 0
0.351723 0.729569 0
0.321394 0.725064 0
0.416449 0.301103 0
0.462668 0.300384 0
0.837044 0.431259 0
</DataArray>
</Points>
<Cells>
<DataArray  type="UInt32"  Name="connectivity"  format="ascii">
1 138 139 
14 137 139 
45 137 138 
137 138 139 
4 141 142 
27 140 142 
65 140 141 
140 141 142 
0 144 145 
23 143 145 
43 143 144 
143 144 145 
4 141 147 
65 141 146 
105 146 147 
141 146 147 
5 149 150 
31 148 150 
47 148 149 
148 149 150 
2 152 153 
32 151 153 
44 151 152 
151 152 153 
2 152 155 
15 154 155 
44 152 154 
152 154 155 
15 154 157 
44 154 156 
101 156 157 
154 156 157 
6 159 160 
43 158 160 
93 158 159 
158 159 160 
15 162 163 
16 161 163 
71 161 162 
161 162 163 
6 159 165 
7 164 165 
93 159 164 
159 164 165 
[...]
<PointData  Vectors="u"> 
<DataArray  type="Float32"  Name="u"  NumberOfComponents="3" format="ascii">
 0.000000e+00 0.000000e+00 0.000000e+00
 0.000000e+00 0.000000e+00 0.000000e+00
 0.000000e+00 0.000000e+00 0.000000e+00
 0.000000e+00 0.000000e+00 0.000000e+00
 0.000000e+00 0.000000e+00 0.000000e+00
 0.000000e+00 0.000000e+00 0.000000e+00
 0.000000e+00 0.000000e+00 0.000000e+00
 0.000000e+00 0.000000e+00 0.000000e+00
 0.000000e+00 0.000000e+00 0.000000e+00
 0.000000e+00 0.000000e+00 0.000000e+00
 0.000000e+00 0.000000e+00 0.000000e+00
 0.000000e+00 0.000000e+00 0.000000e+00
 0.000000e+00 0.000000e+00 0.000000e+00
 0.000000e+00 0.000000e+00 0.000000e+00
 0.000000e+00 0.000000e+00 0.000000e+00
 0.000000e+00 0.000000e+00 0.000000e+00
 0.000000e+00 0.000000e+00 0.000000e+00
 0.000000e+00 0.000000e+00 0.000000e+00
 0.000000e+00 0.000000e+00 0.000000e+00
 0.000000e+00 0.000000e+00 0.000000e+00
 0.000000e+00 0.000000e+00 0.000000e+00
 0.000000e+00 0.000000e+00 0.000000e+00
 0.000000e+00 0.000000e+00 0.000000e+00
 0.000000e+00 0.000000e+00 0.000000e+00
 0.000000e+00 0.000000e+00 0.000000e+00
 0.000000e+00 0.000000e+00 0.000000e+00
 0.000000e+00 0.000000e+00 0.000000e+00
 0.000000e+00 0.000000e+00 0.000000e+00
 0.000000e+00 0.000000e+00 0.000000e+00
 0.000000e+00 0.000000e+00 0.000000e+00
 0.000000e+00 0.000000e+00 0.000000e+00
 0.000000e+00 0.000000e+00 0.000000e+00
 1.409340e-03 -2.874588e-01 0.000000e+00
 2.703770e-03 -4.280856e-01 0.000000e+00
 2.843489e-03 -4.403569e-01 0.000000e+00
 1.625769e-03 -3.110391e-01 0.000000e+00
 3.124367e-01 4.051712e-03 0.000000e+00
 4.415744e-01 9.077440e-03 0.000000e+00
 4.282784e-01 1.054989e-02 0.000000e+00
 2.847685e-01 5.664799e-03 0.000000e+00
 1.988073e-01 -2.449811e-01 0.000000e+00
 3.772360e-02 -4.396830e-01 0.000000e+00
 4.634825e-01 -2.859614e-02 0.000000e+00
 2.122548e-03 -2.520569e-03 0.000000e+00
 4.849165e-04 -1.340804e-01 0.000000e+00
 2.205930e-01 3.062509e-03 0.000000e+00
 1.271239e-01 2.209943e-03 0.000000e+00
 9.813579e-04 -2.094771e-01 0.000000e+00
 7.681507e-02 -3.330266e-01 0.000000e+00
 3.951628e-01 -2.118776e-01 0.000000e+00
 4.567054e-01 2.040940e-02 0.000000e+00
 1.153463e-02 -4.390475e-01 0.000000e+00
 7.405468e-02 -9.001562e-02 0.000000e+00
 2.302927e-01 -7.378547e-02 0.000000e+00
 3.718478e-01 -3.792161e-02 0.000000e+00
 9.883655e-03 -3.267496e-01 0.000000e+00
 3.870857e-03 -3.895679e-01 0.000000e+00
 1.070938e-01 -4.378645e-01 0.000000e+00
 5.657191e-02 -1.979942e-01 0.000000e+00
 3.886137e-01 7.137505e-03 0.000000e+00
 3.471218e-01 1.940183e-02 0.000000e+00
 2.232361e-02 -2.912218e-01 0.000000e+00
 2.130777e-02 -3.836881e-01 0.000000e+00
 4.075440e-01 1.112368e-02 0.000000e+00
 3.933375e-01 1.779446e-02 0.000000e+00
 2.954740e-01 -8.649489e-02 0.000000e+00
 1.075198e-01 -4.020981e-02 0.000000e+00
 3.539932e-01 -1.067206e-01 0.000000e+00
 2.269890e-03 -2.532820e-01 0.000000e+00
 1.069965e-02 -4.406989e-01 0.000000e+00
 1.378195e-02 -2.739169e-02 0.000000e+00
 2.766101e-03 -2.415976e-01 0.000000e+00
 2.304305e-01 -7.660122e-03 0.000000e+00
 2.400619e-01 -3.719603e-01 0.000000e+00
 3.283179e-01 -2.684751e-03 0.000000e+00
 2.422164e-01 -2.632999e-02 0.000000e+00
 3.029425e-02 -1.916430e-01 0.000000e+00
 4.972354e-03 -4.480430e-01 0.000000e+00
 7.598252e-02 -4.237244e-01 0.000000e+00
 3.021865e-02 -2.546489e-01 0.000000e+00
 1.244850e-01 -2.932165e-01 0.000000e+00
 2.471236e-02 -8.838865e-02 0.000000e+00
 3.906303e-01 -2.047400e-02 0.000000e+00
 4.348793e-01 -7.819899e-02 0.000000e+00
 2.772811e-01 -1.783100e-01 0.000000e+00
 5.179041e-02 -4.335284e-01 0.000000e+00
 2.088592e-02 -4.480996e-01 0.000000e+00
 4.566333e-01 1.310284e-02 0.000000e+00
 4.510841e-01 1.526289e-02 0.000000e+00
 2.484199e-01 5.103422e-03 0.000000e+00
 2.507423e-01 1.593398e-02 0.000000e+00
 1.712029e-01 -1.403982e-01 0.000000e+00
 5.848932e-02 -3.497498e-01 0.000000e+00
 2.966624e-02 -2.007453e-02 0.000000e+00
 8.490692e-03 -3.434859e-01 0.000000e+00
 1.715223e-02 -2.740764e-01 0.000000e+00
 1.247392e-01 -1.849126e-02 0.000000e+00
 8.461709e-03 -2.357206e-01 0.000000e+00
 2.294731e-02 -3.732614e-01 0.000000e+00
 4.043629e-01 1.251800e-02 0.000000e+00
 2.893429e-03 -3.801863e-01 0.000000e+00
 1.268497e-03 -2.302727e-01 0.000000e+00
 8.536589e-03 -3.845626e-01 0.000000e+00
 1.504357e-01 -3.971427e-01 0.000000e+00
 1.044837e-01 -1.874657e-01 0.000000e+00
 3.081464e-01 -3.147198e-01 0.000000e+00
 1.760221e-01 7.951270e-03 0.000000e+00
 4.406577e-01 -1.025530e-01 0.000000e+00
 4.063186e-01 2.455339e-02 0.000000e+00
 4.361988e-01 -2.834351e-02 0.000000e+00
 2.995066e-01 -2.829702e-01 0.000000e+00
 4.515861e-01 -2.242538e-03 0.000000e+00
 1.341617e-02 -9.437794e-02 0.000000e+00
 1.460260e-01 1.143824e-02 0.000000e+00
 4.962734e-02 -3.555053e-01 0.000000e+00
 2.692353e-01 3.742838e-03 0.000000e+00
 4.168465e-02 -3.928045e-01 0.000000e+00
 7.042349e-02 -2.636552e-01 0.000000e+00
 2.804378e-03 -1.699490e-01 0.000000e+00
 2.118629e-01 7.105046e-03 0.000000e+00
 6.325259e-03 -2.235352e-01 0.000000e+00
 8.333487e-03 -1.141453e-01 0.000000e+00
 7.372856e-03 -1.370175e-01 0.000000e+00
 1.857628e-02 -4.271691e-01 0.000000e+00
 3.031636e-02 -4.411626e-01 0.000000e+00
 4.313610e-01 6.764398e-04 0.000000e+00
 4.729669e-03 -1.383956e-01 0.000000e+00
 1.803226e-02 -4.197205e-01 0.000000e+00
 1.722116e-01 -2.280507e-02 0.000000e+00
 5.965900e-03 -3.998547e-01 0.000000e+00
 1.771021e-01 -4.112698e-01 0.000000e+00
 2.062412e-01 -3.296940e-01 0.000000e+00
 2.513687e-01 5.042432e-03 0.000000e+00
 3.588813e-01 -1.916813e-01 0.000000e+00
 4.534450e-01 1.294922e-02 0.000000e+00
 1.120750e-01 4.067332e-03 0.000000e+00
 4.122092e-01 -1.444353e-01 0.000000e+00
 1.130115e-01 1.162904e-03 0.000000e+00
 1.105284e-01 9.433492e-04 0.000000e+00
 0.000000e+00 0.000000e+00 0.000000e+00
 1.122569e-01 -1.534208e-02 0.000000e+00
 1.767615e-01 -9.647486e-02 0.000000e+00
 0.000000e+00 0.000000e+00 0.000000e+00
 4.723312e-04 2.618870e-04 0.000000e+00
 -1.193052e-03 1.190210e-03 0.000000e+00
 0.000000e+00 0.000000e+00 0.000000e+00
 3.234241e-01 -2.014393e-01 0.000000e+00
 2.251338e-01 -2.645768e-01 0.000000e+00
 3.556388e-04 -1.057139e-01 0.000000e+00
 3.915278e-04 -1.047533e-01 0.000000e+00
 0.000000e+00 0.000000e+00 0.000000e+00
 9.403157e-04 -2.171860e-01 0.000000e+00
 2.314211e-04 -6.450410e-02 0.000000e+00
 6.189245e-04 -1.520250e-01 0.000000e+00
 1.402378e-04 -6.410171e-02 0.000000e+00
 0.000000e+00 0.000000e+00 0.000000e+00
 7.851494e-04 -1.841166e-01 0.000000e+00
 3.848652e-04 -1.153809e-01 0.000000e+00
 1.186869e-02 -1.052506e-02 0.000000e+00
 7.306481e-03 -4.342403e-03 0.000000e+00
 1.206006e-04 -9.068897e-04 0.000000e+00
 9.953891e-04 -1.222280e-01 0.000000e+00
 6.362508e-04 -1.238535e-01 0.000000e+00
 0.000000e+00 0.000000e+00 0.000000e+00
 2.071819e-02 -6.912240e-03 0.000000e+00
 0.000000e+00 0.000000e+00 0.000000e+00
 0.000000e+00 0.000000e+00 0.000000e+00
 1.219278e-01 -2.935261e-02 0.000000e+00
 6.046117e-02 -5.575781e-03 0.000000e+00
 7.081690e-02 -1.235672e-02 0.000000e+00
 2.904823e-03 -2.070078e-01 0.000000e+00
 7.305543e-04 -8.324889e-02 0.000000e+00
 1.010974e-03 -8.081099e-02 0.000000e+00
 0.000000e+00 0.000000e+00 0.000000e+00
 2.343159e-02 -2.743678e-02 0.000000e+00
 8.017515e-03 -1.189922e-02 0.000000e+00
 4.757633e-02 -1.147715e-02 0.000000e+00
 0.000000e+00 0.000000e+00 0.000000e+00
 7.645010e-02 -5.216920e-03 0.000000e+00
 0.000000e+00 0.000000e+00 0.000000e+00
 1.475560e-01 -6.531016e-03 0.000000e+00
 1.312731e-01 -8.593214e-03 0.000000e+00
 0.000000e+00 0.000000e+00 0.000000e+00
 3.153198e-01 -6.232260e-02 0.000000e+00
 2.468669e-01 -4.815371e-02 0.000000e+00
 2.938323e-01 -9.386825e-02 0.000000e+00
 1.289645e-01 -1.000277e-03 0.000000e+00
 1.231241e-01 -2.464360e-03 0.000000e+00
 0.000000e+00 0.000000e+00 0.000000e+00
 2.833680e-01 -6.322770e-03 0.000000e+00
 1.898673e-01 -5.627129e-04 0.000000e+00
 1.713168e-01 4.149908e-03 0.000000e+00
 1.030459e-01 2.420061e-03 0.000000e+00
 5.902076e-02 9.168932e-04 0.000000e+00
 6.775665e-03 -1.883345e-01 0.000000e+00
 1.168709e-03 -6.824071e-02 0.000000e+00
 2.398768e-03 -1.186741e-01 0.000000e+00
 1.479782e-03 -6.404051e-02 0.000000e+00
 0.000000e+00 0.000000e+00 0.000000e+00
 1.639356e-01 -3.151829e-01 0.000000e+00
 2.057111e-01 -2.874481e-01 0.000000e+00
 1.607976e-01 -2.747775e-01 0.000000e+00
 1.869819e-02 -2.009558e-01 0.000000e+00
 5.855436e-02 -2.494445e-01 0.000000e+00
 0.000000e+00 0.000000e+00 0.000000e+00
 3.122015e-02 -3.089026e-01 0.000000e+00
 7.847434e-03 -1.554337e-01 0.000000e+00
 1.038239e-02 -2.472425e-01 0.000000e+00
 2.359006e-03 -1.162202e-01 0.000000e+00
 4.384266e-03 -1.417721e-01 0.000000e+00
 1.431430e-03 -1.110396e-01 0.000000e+00
 0.000000e+00 0.000000e+00 0.000000e+00
 2.891769e-03 -4.119370e-01 0.000000e+00
 2.140636e-03 -3.468335e-01 0.000000e+00
 2.169997e-03 -3.778305e-01 0.000000e+00
 1.629253e-01 5.757998e-03 0.000000e+00
 5.338621e-02 1.223721e-03 0.000000e+00
 2.122787e-01 3.947466e-03 0.000000e+00
 6.137451e-02 8.386733e-04 0.000000e+00
 1.495659e-01 2.303722e-03 0.000000e+00
 3.021525e-01 1.573166e-03 0.000000e+00
 1.453428e-01 1.867139e-03 0.000000e+00
 1.907660e-01 1.442061e-03 0.000000e+00
 2.002262e-01 1.438444e-02 0.000000e+00
 6.652133e-02 4.133095e-03 0.000000e+00
 1.188986e-01 6.404269e-03 0.000000e+00
 2.608208e-01 4.712611e-03 0.000000e+00
 1.353567e-01 1.782539e-03 0.000000e+00
 0.000000e+00 0.000000e+00 0.000000e+00
 5.682011e-02 4.590843e-03 0.000000e+00
 0.000000e+00 0.000000e+00 0.000000e+00
 2.247445e-03 -6.042480e-02 0.000000e+00
 1.956341e-03 -6.688355e-02 0.000000e+00
 0.000000e+00 0.000000e+00 0.000000e+00
 1.695804e-02 -2.024526e-01 0.000000e+00
 1.486190e-02 -2.189332e-01 0.000000e+00
 2.644585e-02 -2.745308e-01 0.000000e+00
 6.446581e-04 -1.309942e-01 0.000000e+00
 1.064284e-03 -1.325506e-01 0.000000e+00
 0.000000e+00 0.000000e+00 0.000000e+00
 2.154472e-02 -1.412679e-01 0.000000e+00
 3.434777e-03 -4.633278e-02 0.000000e+00
 8.024617e-03 -8.883065e-02 0.000000e+00
 4.441600e-01 1.385390e-02 0.000000e+00
 4.492931e-01 1.155269e-02 0.000000e+00
 4.283185e-01 1.002818e-02 0.000000e+00
 6.119827e-02 4.017205e-03 0.000000e+00
 6.642857e-02 5.806296e-03 0.000000e+00
 0.000000e+00 0.000000e+00 0.000000e+00
 3.280049e-03 -3.676906e-02 0.000000e+00
 0.000000e+00 0.000000e+00 0.000000e+00
 5.860436e-03 -3.106352e-02 0.000000e+00
 6.184139e-03 -4.389615e-02 0.000000e+00
 0.000000e+00 0.000000e+00 0.000000e+00
 3.303553e-03 -4.453005e-01 0.000000e+00
 3.315640e-03 -4.450666e-01 0.000000e+00
 2.942243e-03 -4.479108e-01 0.000000e+00
 2.038791e-03 -3.489188e-01 0.000000e+00
 2.768945e-03 -4.185562e-01 0.000000e+00
 2.376911e-03 -3.991088e-01 0.000000e+00
 2.695635e-01 3.562017e-03 0.000000e+00
 1.699208e-01 1.602462e-03 0.000000e+00
 1.278506e-01 1.648253e-03 0.000000e+00
 1.316021e-01 1.933954e-03 0.000000e+00
 0.000000e+00 0.000000e+00 0.000000e+00
 4.653492e-01 4.351795e-03 0.000000e+00
 4.638997e-01 -1.362790e-02 0.000000e+00
 4.620422e-01 -3.090608e-03 0.000000e+00
 4.432848e-01 1.263858e-02 0.000000e+00
 4.489097e-01 1.044895e-02 0.000000e+00
 1.941534e-03 -3.098723e-01 0.000000e+00
 1.316687e-03 -2.639204e-01 0.000000e+00
 7.455530e-04 -1.685710e-01 0.000000e+00
 2.230545e-01 -1.620781e-01 0.000000e+00
 1.872789e-01 -1.913948e-01 0.000000e+00
 2.396025e-01 -2.149277e-01 0.000000e+00
 1.381674e-01 -1.688062e-01 0.000000e+00
 1.497050e-01 -2.197142e-01 0.000000e+00
 5.721734e-02 -4.121046e-01 0.000000e+00
 4.105134e-02 -4.213726e-01 0.000000e+00
 5.447798e-02 -4.343384e-01 0.000000e+00
 3.352356e-01 6.879287e-03 0.000000e+00
 3.664661e-01 6.856863e-03 0.000000e+00
 4.134277e-01 -8.996957e-03 0.000000e+00
 4.535719e-01 -1.430088e-02 0.000000e+00
 4.435345e-01 -2.750512e-02 0.000000e+00
 3.482120e-01 1.059599e-02 0.000000e+00
 4.136741e-01 1.341482e-02 0.000000e+00
 3.765602e-01 8.918277e-03 0.000000e+00
 2.550432e-02 -4.464640e-01 0.000000e+00
 3.517939e-02 -4.473738e-01 0.000000e+00
 2.858605e-02 -4.458386e-01 0.000000e+00
 2.786160e-03 -3.264558e-01 0.000000e+00
 1.422957e-03 -2.316284e-01 0.000000e+00
 4.343862e-01 -1.291243e-01 0.000000e+00
 4.081564e-01 -1.776748e-01 0.000000e+00
 4.228550e-01 -1.545186e-01 0.000000e+00
 2.674992e-03 -5.163453e-03 0.000000e+00
 3.568361e-03 -1.345410e-02 0.000000e+00
 0.000000e+00 0.000000e+00 0.000000e+00
 4.003151e-01 6.792419e-03 0.000000e+00
 5.938675e-02 -1.437204e-01 0.000000e+00
 9.025838e-02 -1.367257e-01 0.000000e+00
 4.776755e-02 -9.827184e-02 0.000000e+00
 4.460617e-01 -9.406923e-02 0.000000e+00
 4.551645e-01 -5.976050e-02 0.000000e+00
 4.568118e-01 -5.517902e-02 0.000000e+00
 3.989734e-01 -9.708789e-02 0.000000e+00
 4.107399e-01 -5.806447e-02 0.000000e+00
 3.709651e-01 -6.895635e-02 0.000000e+00
 2.509246e-03 -3.253646e-01 0.000000e+00
 1.284301e-03 -2.603086e-01 0.000000e+00
 5.767531e-03 -4.348183e-01 0.000000e+00
 8.495663e-03 -4.237063e-01 0.000000e+00
 7.713214e-03 -4.449079e-01 0.000000e+00
 2.094033e-02 -3.996841e-01 0.000000e+00
 2.653862e-02 -4.322530e-01 0.000000e+00
 3.099720e-02 -4.158979e-01 0.000000e+00
 3.104989e-02 -2.238819e-01 0.000000e+00
 5.094713e-02 -3.026072e-01 0.000000e+00
 5.351402e-02 -2.694629e-01 0.000000e+00
 1.084492e-01 -4.158019e-01 0.000000e+00
 1.122190e-01 -3.724685e-01 0.000000e+00
 8.129765e-02 -3.854879e-01 0.000000e+00
 2.413592e-01 -3.742739e-01 0.000000e+00
 1.532283e-01 -3.305658e-01 0.000000e+00
 2.342441e-01 4.108051e-03 0.000000e+00
 0.000000e+00 0.000000e+00 0.000000e+00
 3.200864e-01 1.339451e-02 0.000000e+00
 2.509782e-01 6.211021e-03 0.000000e+00
 4.060298e-01 1.276681e-02 0.000000e+00
 4.470886e-01 1.662491e-02 0.000000e+00
 4.455256e-01 1.628783e-02 0.000000e+00
 4.074938e-02 -3.097547e-01 0.000000e+00
 6.263075e-02 -3.469089e-01 0.000000e+00
 1.265232e-02 -4.047399e-01 0.000000e+00
 1.418794e-02 -3.829903e-01 0.000000e+00
 9.439745e-03 -3.584830e-01 0.000000e+00
 6.850110e-02 -4.438649e-01 0.000000e+00
 7.508511e-02 -4.376699e-01 0.000000e+00
 9.290178e-02 -4.371175e-01 0.000000e+00
 4.349357e-01 1.747583e-02 0.000000e+00
 4.535039e-01 1.870754e-02 0.000000e+00
 4.379266e-01 2.148532e-02 0.000000e+00
 4.079387e-01 -3.883788e-03 0.000000e+00
 4.283242e-01 4.060172e-03 0.000000e+00
 3.619921e-01 2.246079e-03 0.000000e+00
 4.356924e-01 2.152012e-02 0.000000e+00
 4.434974e-01 2.316789e-02 0.000000e+00
 4.578037e-01 1.997489e-02 0.000000e+00
 3.186660e-01 -1.881910e-01 0.000000e+00
 3.603048e-01 -1.467792e-01 0.000000e+00
 3.199060e-01 -1.441342e-01 0.000000e+00
 3.960617e-01 -1.076423e-01 0.000000e+00
 3.831950e-01 -1.715332e-01 0.000000e+00
 1.469101e-01 -8.663901e-02 0.000000e+00
 2.062830e-01 -1.086015e-01 0.000000e+00
 1.672352e-01 -5.814702e-02 0.000000e+00
 1.481946e-01 -2.082544e-02 0.000000e+00
 9.770499e-02 -6.295890e-03 0.000000e+00
 1.166806e-01 -2.402935e-01 0.000000e+00
 7.940827e-02 -1.984419e-01 0.000000e+00
 8.902471e-02 -2.503298e-01 0.000000e+00
 4.387529e-01 -5.028342e-02 0.000000e+00
 4.078966e-01 -3.524819e-02 0.000000e+00
 7.470324e-03 -4.474769e-01 0.000000e+00
 1.161668e-02 -4.484607e-01 0.000000e+00
 1.343487e-02 -3.946336e-01 0.000000e+00
 1.477820e-02 -4.336503e-01 0.000000e+00
 1.088054e-02 -4.067974e-01 0.000000e+00
 1.544441e-02 -3.156680e-01 0.000000e+00
 2.358154e-02 -3.362958e-01 0.000000e+00
 1.433241e-02 -2.673527e-01 0.000000e+00
 4.789748e-03 -4.369849e-01 0.000000e+00
 6.403416e-02 -3.131821e-02 0.000000e+00
 5.376463e-02 -5.050334e-02 0.000000e+00
 9.744483e-02 -6.821322e-02 0.000000e+00
 1.957351e-02 -5.490619e-02 0.000000e+00
 3.855954e-02 -5.866748e-02 0.000000e+00
 5.460721e-03 -3.257859e-01 0.000000e+00
 5.532294e-03 -2.886589e-01 0.000000e+00
 9.952092e-03 -4.200153e-01 0.000000e+00
 5.788949e-03 -3.874679e-01 0.000000e+00
 6.678683e-03 -4.221185e-01 0.000000e+00
 4.460768e-01 -1.422454e-02 0.000000e+00
 3.984999e-01 -1.225992e-02 0.000000e+00
 2.423265e-01 -1.587569e-02 0.000000e+00
 3.126278e-01 -3.458634e-02 0.000000e+00
 3.169003e-01 -2.037609e-02 0.000000e+00
 5.797411e-02 -4.043360e-01 0.000000e+00
 9.040931e-02 -4.171844e-01 0.000000e+00
 3.598571e-01 -2.634822e-01 0.000000e+00
 1.315544e-01 1.971408e-03 0.000000e+00
 0.000000e+00 0.000000e+00 0.000000e+00
 3.606234e-01 -1.576766e-02 0.000000e+00
 9.576877e-02 -2.826741e-01 0.000000e+00
 7.467958e-02 -2.995258e-01 0.000000e+00
 1.001616e-01 -3.179944e-01 0.000000e+00
 1.877046e-02 -9.455176e-02 0.000000e+00
 3.186088e-02 -1.507979e-01 0.000000e+00
 3.982989e-02 -1.403352e-01 0.000000e+00
 7.331507e-03 -3.747879e-01 0.000000e+00
 4.181489e-03 -3.412429e-01 0.000000e+00
 4.552160e-03 -3.015013e-01 0.000000e+00
 2.520550e-01 -3.120208e-01 0.000000e+00
 2.256424e-01 -3.532615e-01 0.000000e+00
 2.750213e-01 -3.298012e-01 0.000000e+00
 3.132156e-02 -3.849320e-01 0.000000e+00
 3.244404e-02 -3.501353e-01 0.000000e+00
 2.327503e-03 -4.582682e-02 0.000000e+00
 2.279925e-03 -5.358268e-02 0.000000e+00
 0.000000e+00 0.000000e+00 0.000000e+00
 4.610656e-02 -3.756366e-01 0.000000e+00
 6.390965e-02 -3.960535e-01 0.000000e+00
 1.799323e-01 -3.675660e-01 0.000000e+00
 1.435660e-01 -3.488195e-01 0.000000e+00
 4.879293e-02 -2.327806e-01 0.000000e+00
 6.413913e-02 -2.307720e-01 0.000000e+00
 4.256196e-02 -1.994676e-01 0.000000e+00
 4.345102e-01 1.370162e-02 0.000000e+00
 4.584308e-01 1.805220e-02 0.000000e+00
 2.974744e-01 -1.993212e-03 0.000000e+00
 2.709323e-01 1.419419e-02 0.000000e+00
 3.665327e-01 6.380725e-03 0.000000e+00
 3.876637e-01 -1.697936e-01 0.000000e+00
 3.861838e-01 -1.278800e-01 0.000000e+00
 4.265943e-01 -5.984964e-02 0.000000e+00
 3.456467e-01 -4.905082e-02 0.000000e+00
 2.601345e-01 -1.233503e-01 0.000000e+00
 3.177153e-01 -3.127699e-01 0.000000e+00
 2.772216e-01 -3.583361e-01 0.000000e+00
 0.000000e+00 0.000000e+00 0.000000e+00
 4.655664e-02 -4.463933e-01 0.000000e+00
 3.959992e-02 -4.372860e-01 0.000000e+00
 2.670623e-02 -4.212481e-01 0.000000e+00
 3.415740e-02 -4.130352e-01 0.000000e+00
 1.525050e-02 -4.463024e-01 0.000000e+00
 1.585750e-02 -4.461581e-01 0.000000e+00
 3.417486e-01 2.268189e-02 0.000000e+00
 3.803867e-01 2.349195e-02 0.000000e+00
 2.988871e-01 2.171076e-02 0.000000e+00
 4.467209e-01 8.224736e-03 0.000000e+00
 3.949964e-01 1.261396e-02 0.000000e+00
 4.199042e-01 1.649830e-02 0.000000e+00
 3.410549e-01 9.149730e-03 0.000000e+00
 3.459797e-01 8.612256e-03 0.000000e+00
 1.581075e-01 1.206923e-02 0.000000e+00
 2.545128e-01 1.859602e-02 0.000000e+00
 3.990587e-01 2.255258e-02 0.000000e+00
 1.196801e-01 -1.179775e-01 0.000000e+00
 1.122342e-01 -3.960059e-01 0.000000e+00
 1.365759e-01 -4.288249e-01 0.000000e+00
 7.954673e-03 -2.905036e-01 0.000000e+00
 1.342213e-02 -3.175045e-01 0.000000e+00
 1.365205e-02 -3.637622e-01 0.000000e+00
 2.882118e-03 -1.941906e-01 0.000000e+00
 3.625519e-02 -3.820624e-01 0.000000e+00
 2.069570e-02 -3.377034e-01 0.000000e+00
 1.857737e-01 -4.344367e-02 0.000000e+00
 2.073805e-01 -2.528984e-02 0.000000e+00
 2.110698e-01 -4.589459e-02 0.000000e+00
 6.007378e-03 -1.385019e-01 0.000000e+00
 1.212862e-02 -2.229552e-01 0.000000e+00
 5.099348e-03 -2.051083e-01 0.000000e+00
 6.086096e-03 -2.572943e-01 0.000000e+00
 9.621208e-03 -2.846215e-01 0.000000e+00
 2.014945e-02 -4.406307e-01 0.000000e+00
 1.422500e-02 -4.321105e-01 0.000000e+00
 1.545419e-02 -3.531938e-01 0.000000e+00
 4.535544e-01 6.827320e-03 0.000000e+00
 4.300760e-01 9.659823e-03 0.000000e+00
 3.432826e-01 8.822308e-03 0.000000e+00
 3.307694e-01 7.049677e-03 0.000000e+00
 3.975789e-01 1.054209e-02 0.000000e+00
 4.101699e-03 -3.903184e-01 0.000000e+00
 4.061267e-03 -4.301543e-01 0.000000e+00
 1.831764e-03 -2.363458e-01 0.000000e+00
 3.698293e-03 -3.291336e-01 0.000000e+00
 1.342615e-01 -4.266038e-01 0.000000e+00
 1.717758e-01 -4.171018e-01 0.000000e+00
 2.168512e-01 -3.996926e-01 0.000000e+00
 1.918802e-01 -3.902434e-01 0.000000e+00
 2.252287e-01 -1.774860e-02 0.000000e+00
 4.263795e-01 -1.090081e-01 0.000000e+00
 3.346818e-01 1.844131e-02 0.000000e+00
 4.587735e-01 -3.156103e-02 0.000000e+00
 2.927588e-01 -2.300013e-01 0.000000e+00
 2.486257e-01 -2.686516e-01 0.000000e+00
 3.525070e-01 -2.582033e-01 0.000000e+00