<?xml version="1.0"?>
<VTKFile type="UnstructuredGrid"  version="0.1"  >
<UnstructuredGrid>
<Piece  NumberOfPoints="505" NumberOfCells="928">
<Points>
<DataArray  type="Float32"  NumberOfComponents="3"  format="ascii">
0 0 0
1 0 0
0 1 0
1 0.5 0
0.5 0.5 0
0.5 1 0
0.1 0 0
0.2 0 0
0.3 0 0
0.4 0 0
0.5 0 0
0.6 0 0
0.7 0 0
0.8 0 0
0.9 0 0
0 0.9 0
0 0.8 0
0 0.7 0
0 0.6 0
0 0.5 0
0 0.4 0
0 0.3 0
0 0.2 0
0 0.1 0
0.9 0.5 0
0.8 0.5 0
0.7 0.5 0
0.6 0.5 0
0.5 0.6 0
0.5 0.7 0
0.5 0.8 0
0.5 0.9 0
0.1 1 0
0.2 1 0
0.3 1 0
0.4 1 0
1 0.1 0
1 0.2 0
1 0.3 0
1 0.4 0
0.300178 0.296564 0
0.247566 0.664879 0
0.639694 0.259804 0
0.06564 0.06472 0
0.04439 0.954144 0
0.932418 0.064715 0
0.951013 0.456419 0
0.437622 0.939659 0
0.195334 0.464441 0
0.483382 0.329596 0
0.834786 0.236295 0
0.307228 0.81139 0
0.178229 0.173372 0
0.366998 0.134199 0
0.547485 0.14214 0
0.124832 0.74927 0
0.160163 0.896658 0
0.342556 0.535243 0
0.147651 0.342018 0
0.729803 0.127878 0
0.725981 0.357775 0
0.121369 0.600441 0
0.372954 0.70814 0
0.908503 0.151525 0
0.89851 0.333305 0
0.556275 0.400898 0
0.259184 0.092178 0
0.46329 0.194362 0
0.423773 0.869712 0
0.22823 0.818162 0
0.081292 0.144905 0
0.082979 0.831935 0
0.549999 0.065419 0
0.371537 0.407588 0
0.642628 0.097865 0
0.459835 0.086595 0
0.108565 0.418567 0
0.273082 0.902112 0
0.256598 0.556659 0
0.11951 0.509541 0
0.234147 0.370527 0
0.097453 0.253261 0
0.638438 0.342389 0
0.554656 0.224779 0
0.373432 0.237603 0
0.339663 0.62579 0
0.27079 0.747786 0
0.733958 0.266592 0
0.928527 0.244458 0
0.853116 0.071497 0
0.818426 0.404817 0
0.280194 0.200604 0
0.417859 0.565185 0
0.147241 0.079056 0
0.389149 0.789957 0
0.42808 0.654642 0
0.343469 0.059202 0
0.086765 0.684153 0
0.162043 0.675011 0
0.809252 0.14201 0
0.364337 0.928607 0
0.077532 0.916553 0
0.159064 0.807906 0
0.302124 0.454032 0
0.205909 0.272176 0
0.449664 0.407415 0
0.66041 0.423241 0
0.562201 0.303789 0
0.802658 0.320211 0
0.614551 0.182931 0
0.390944 0.331035 0
0.687136 0.18846 0
0.070577 0.342498 0
0.741087 0.437361 0
0.176989 0.547528 0
0.710251 0.07409 0
0.192845 0.608574 0
0.171114 0.398277 0
0.058959 0.753084 0
0.904 0.425508 0
0.438039 0.730373 0
0.057223 0.475897 0
0.058502 0.552106 0
0.330493 0.750997 0
0.312295 0.699131 0
0.684882 0.307111 0
0.053312 0.627311 0
0.198798 0.743695 0
0.392326 0.069953 0
0.351519 0.860283 0
0.397134 0.477694 0
0.319385 0.371198 0
0.767351 0.069505 0
0.441954 0.271171 0
0.759504 0.192785 0
0.855661 0.457701 0
0.500847 0.264652 0
0.916209 0.0323575 0
0.966209 0.0323575 0
0.95 0 0
0.578137 0.450449 0
0.528137 0.450449 0
0.55 0.5 0
0.03282 0.08236 0
0.03282 0.03236 0
0 0.05 0
0.502969 0.404157 0
0.474832 0.453708 0
0.468811 0.91983 0
0.468811 0.96983 0
0.5 0.95 0
0.072195 0.977072 0
0.022195 0.977072 0
0.05 1 0
0.022195 0.927072 0
0 0.95 0
0.060961 0.935348 0
0.038766 0.908276 0
0.106441 0.071888 0
0.123621 0.039528 0
0.08282 0.03236 0
0.0414895 0.815967 0
0.0414895 0.865968 0
0 0.85 0
0.173621 0.039528 0
0.15 0 0
0.05 0 0
0.301327 0.07569 0
0.321735 0.029601 0
0.279592 0.046089 0
0.070969 0.792509 0
0.0294795 0.776542 0
0.0294795 0.726542 0
0 0.75 0
0.114267 0.111981 0
0.073466 0.104813 0
0.229592 0.046089 0
0.25 0 0
0.371735 0.029601 0
0.35 0 0
0.479917 0.0432975 0
0.429918 0.0432975 0
0.45 0 0
0.461562 0.140479 0
0.413416 0.110397 0
0.415144 0.16428 0
0.574999 0.0327095 0
0.525 0.0327095 0
0.55 0 0
0.596313 0.081642 0
0.621314 0.0489325 0
0.927507 0.440964 0
0.902 0.462754 0
0.925507 0.47821 0
0.0700385 0.655732 0
0.026656 0.663655 0
0.0433825 0.692076 0
0.026656 0.613655 0
0 0.65 0
0.276766 0.370862 0
0.309781 0.333881 0
0.267162 0.333545 0
0.458929 0.582593 0
0.458929 0.532593 0
0.5 0.55 0
0.422969 0.609913 0
0.46404 0.627321 0
0.43306 0.692508 0
0.46902 0.715186 0
0.46404 0.677321 0
0.46902 0.765186 0
0.5 0.75 0
0.180082 0.948329 0
0.130082 0.948329 0
0.15 1 0
0.87983 0.441605 0
0.87783 0.478851 0
0.975507 0.42821 0
0.975507 0.47821 0
1 0.45 0
0.676439 0.0859775 0
0.705125 0.037045 0
0.671314 0.0489325 0
0.779756 0.421089 0
0.770544 0.46868 0
0.809213 0.452408 0
0.738801 0.0717975 0
0.733675 0.0347525 0
0.95 0.5 0
0.720544 0.46868 0
0.75 0.5 0
0.029251 0.526053 0
0.029251 0.576053 0
0 0.55 0
0.089006 0.530824 0
0.0899355 0.576273 0
0.12044 0.554991 0
0.461886 0.884856 0
0.461886 0.834856 0
0.5 0.85 0
0.089571 0.380533 0
0.0352885 0.371249 0
0.0542825 0.409284 0
0.918515 0.197991 0
0.964263 0.222229 0
0.954252 0.175762 0
0.630205 0.46162 0
0.680205 0.46162 0
0.65 0.5 0
0.0352885 0.321249 0
0 0.35 0
0.0487265 0.226631 0
0.0487265 0.276631 0
0 0.25 0
0.286541 0.951056 0
0.236541 0.951056 0
0.25 1 0
0.382169 0.964303 0
0.332168 0.964303 0
0.35 1 0
0.966209 0.0823575 0
1 0.05 0
0.876558 0.0357485 0
0.826558 0.0357485 0
0.85 0 0
0.710547 0.227526 0
0.663415 0.224132 0
0.686826 0.263198 0
0.964263 0.272229 0
1 0.25 0
0.40098 0.934133 0
0.418811 0.96983 0
0.45 1 0
0.326813 0.219104 0
0.290186 0.248584 0
0.336805 0.267084 0
0.243052 0.23639 0
0.253043 0.28437 0
0.224721 0.582616 0
0.220205 0.636726 0
0.252082 0.610769 0
0.92046 0.10812 0
0.954252 0.125762 0
0.66166 0.32475 0
0.662288 0.283458 0
0.639066 0.301096 0
0.949255 0.366653 0
0.949255 0.316653 0
1 0.35 0
0.291542 0.723459 0
0.27993 0.682005 0
0.259178 0.706333 0
0.394055 0.89916 0
0.430698 0.904686 0
0.531524 0.28422 0
0.492115 0.297124 0
0.522791 0.316692 0
0.040646 0.122453 0
0.040646 0.172453 0
0 0.15 0
1 0.15 0
0.151681 0.262718 0
0.192069 0.222774 0
0.137841 0.213317 0
0.558428 0.264284 0
0.600947 0.281797 0
0.597175 0.242291 0
0.508973 0.20957 0
0.551071 0.183459 0
0.505387 0.168251 0
0.118847 0.906605 0
0.088766 0.958276 0
0.3123 0.881198 0
0.329373 0.835836 0
0.290155 0.856751 0
0.18042 0.709353 0
0.223182 0.704287 0
0.204805 0.669945 0
0.114037 0.464054 0
0.157422 0.486991 0
0.15195 0.441504 0
0.279361 0.505346 0
0.248729 0.459236 0
0.225966 0.51055 0
0.423399 0.442555 0
0.448567 0.488847 0
0.892767 0.068106 0
0.65 0 0
0.901255 0.379406 0
0.952 0.412754 0
0.858877 0.146767 0
0.822019 0.189153 0
0.871644 0.19391 0
0.14825 0.528535 0
0.186162 0.505985 0
0.178931 0.775801 0
0.161815 0.746482 0
0.141948 0.778588 0
0.29813 0.591225 0
0.34111 0.580516 0
0.299577 0.545951 0
0.913519 0.288882 0
0.881657 0.240376 0
0.866648 0.2848 0
0.664882 0.143162 0
0.708469 0.158169 0
0.686215 0.112871 0
0.768308 0.293401 0
0.818722 0.278253 0
0.784372 0.251443 0
0.407693 0.254387 0
0.452622 0.232766 0
0.418361 0.215983 0
0.559238 0.352343 0
0.519829 0.365247 0
0.269689 0.146391 0
0.323596 0.167402 0
0.313091 0.113188 0
0.367897 0.0645775 0
0.396163 0.0349765 0
0.220028 0.321352 0
0.17678 0.307097 0
0.190899 0.356272 0
0.584604 0.203855 0
0.581018 0.162535 0
0.250656 0.860137 0
0.267729 0.814776 0
0.359821 0.770477 0
0.31886 0.781193 0
0.348189 0.800674 0
0.124404 0.679582 0
0.141706 0.637726 0
0.104067 0.642297 0
0.216622 0.899385 0
0.203213 0.085617 0
0.162735 0.126214 0
0.218707 0.132775 0
0.0893725 0.199083 0
0.129761 0.159139 0
0.121022 0.819921 0
0.103905 0.790602 0
0.193647 0.813034 0
0.159614 0.852282 0
0.194196 0.85741 0
0.650843 0.185696 0
0.628589 0.140398 0
0.504917 0.076007 0
0.50366 0.114367 0
0.548742 0.103779 0
0.378761 0.595487 0
0.380208 0.550214 0
0.466523 0.368506 0
0.783675 0.0347525 0
0.75 0 0
0.595056 0.120002 0
0.20263 0.384402 0
0.183224 0.431359 0
0.214741 0.417484 0
0.084015 0.29788 0
0.109114 0.342258 0
0.122552 0.29764 0
0.370334 0.82512 0
0.387646 0.864998 0
0.406461 0.829835 0
0.355164 0.351116 0
0.345461 0.389393 0
0.38124 0.369312 0
0.177444 0.641792 0
0.157107 0.604507 0
0.0286115 0.437949 0
0.0286115 0.487949 0
0 0.45 0
0.184917 0.578051 0
0.216794 0.552094 0
0.310754 0.412615 0
0.268135 0.41228 0
0.13984 0.408422 0
0.159382 0.370147 0
0.128108 0.380293 0
0.784378 0.167398 0
0.797145 0.21454 0
0.649424 0.382815 0
0.693196 0.390508 0
0.682209 0.350082 0
0.471401 0.267911 0
0.482069 0.229507 0
0.600319 0.323089 0
0.597356 0.371644 0
0.370215 0.185901 0
0.420304 0.369225 0
0.410601 0.407502 0
0.5 0.65 0
0.293615 0.645334 0
0.325979 0.66246 0
0.342624 0.703635 0
0.356309 0.666965 0
0.24951 0.782974 0
0.289009 0.779588 0
0.810542 0.362514 0
0.76432 0.338993 0
0.772204 0.381296 0
0.70942 0.286852 0
0.705431 0.332443 0
0.729969 0.312184 0
0.831184 0.106754 0
0.88081 0.111511 0
0.700748 0.430301 0
0.733534 0.397568 0
0.850584 0.326758 0
0.229212 0.186988 0
0.407496 0.52144 0
0.369845 0.506468 0
0.413594 0.760165 0
0.405497 0.719256 0
0.381051 0.749049 0
0.444574 0.794979 0
0.383872 0.640216 0
0.400517 0.681391 0
0.355233 0.0967005 0
0.42608 0.078274 0
0.379662 0.102076 0
0.055907 0.589708 0
0.0873405 0.613876 0
0.072862 0.718619 0
0.0918955 0.751177 0
0.105798 0.716711 0
0.234794 0.74574 0
0.213514 0.780928 0
0.143437 0.712141 0
0.72332 0.190623 0
0.744653 0.160332 0
0.788301 0.105758 0
0.748577 0.0986915 0
0.769527 0.134944 0
0.357928 0.894445 0
0.318709 0.915359 0
0.0802555 0.874244 0
0.121571 0.864297 0
0.32234 0.494638 0
0.349629 0.465863 0
0.384335 0.442641 0
0.336831 0.43081 0
0.608343 0.412069 0
0.527752 0.244716 0
0.858468 0.369061 0
0.627123 0.221367 0
0.382188 0.284319 0
0.345561 0.3138 0
0.437163 0.330315 0
0.746731 0.229689 0
0.149179 0.573985 0
0.720027 0.100984 0
0.810234 0.070501 0
0.861213 0.415162 0
0.827831 0.478851 0
0.85 0.5 0
0.082894 0.447232 0
0.0883665 0.492719 0
0.0578625 0.514002 0
0.300642 0.749391 0
0.351723 0.729569 0
0.321394 0.725064 0
0.416449 0.301103 0
0.462668 0.300384 0
0.837044 0.431259 0
</DataArray>
</Points>
<Cells>
<DataArray  type="UInt32"  Name="connectivity"  format="ascii">
1 138 139 
14 137 139 
45 137 138 
137 138 139 
4 141 142 
27 140 142 
65 140 141 
140 141 142 
0 144 145 
23 143 145 
43 143 144 
143 144 145 
4 141 147 
65 141 146 
105 146 147 
141 146 147 
5 149 150 
31 148 150 
47 148 149 
148 149 150 
2 152 153 
32 151 153 
44 151 152 
151 152 153 
2 152 155 
15 154 155 
44 152 154 
152 154 155 
15 154 157 
44 154 156 
101 156 157 
154 156 157 
6 159 160 
43 158 160 
93 158 159 
158 159 160 
15 162 163 
16 161 163 
71 161 162 
161 162 163 
6 159 165 
7 164 165 
93 159 164 
159 164 165 
[...]
<PointData  Vectors="u"> 
<DataArray  type="Float32"  Name="u"  NumberOfComponents="3" format="ascii">
 0.000000e+00 0.000000e+00 0.000000e+00
 0.000000e+00 0.000000e+00 0.000000e+00
 0.000000e+00 0.000000e+00 0.000000e+00
 0.000000e+00 0.000000e+00 0.000000e+00
 0.000000e+00 0.000000e+00 0.000000e+00
 0.000000e+00 0.000000e+00 0.000000e+00
 0.000000e+00 0.000000e+00 0.000000e+00
 0.000000e+00 0.000000e+00 0.000000e+00
 0.000000e+00 0.000000e+00 0.000000e+00
 0.000000e+00 0.000000e+00 0.000000e+00
 0.000000e+00 0.000000e+00 0.000000e+00
 0.000000e+00 0.000000e+00 0.000000e+00
 0.000000e+00 0.000000e+00 0.000000e+00
 0.000000e+00 0.000000e+00 0.000000e+00
 0.000000e+00 0.000000e+00 0.000000e+00
 0.000000e+00 0.000000e+00 0.000000e+00
 0.000000e+00 0.000000e+00 0.000000e+00
 0.000000e+00 0.000000e+00 0.000000e+00
 0.000000e+00 0.000000e+00 0.000000e+00
 0.000000e+00 0.000000e+00 0.000000e+00
 0.000000e+00 0.000000e+00 0.000000e+00
 0.000000e+00 0.000000e+00 0.000000e+00
 0.000000e+00 0.000000e+00 0.000000e+00
 0.000000e+00 0.000000e+00 0.000000e+00
 0.000000e+00 0.000000e+00 0.000000e+00
 0.000000e+00 0.000000e+00 0.000000e+00
 0.000000e+00 0.000000e+00 0.000000e+00
 0.000000e+00 0.000000e+00 0.000000e+00
 0.000000e+00 0.000000e+00 0.000000e+00
 0.000000e+00 0.000000e+00 0.000000e+00
 0.000000e+00 0.000000e+00 0.000000e+00
 0.000000e+00 0.000000e+00 0.000000e+00
 1.192974e-03 -2.792328e-01 0.000000e+00
 2.396050e-03 -3.226278e-01 0.000000e+00
 2.511033e-03 -3.286083e-01 0.000000e+00
 1.402742e-03 -2.910564e-01 0.000000e+00
 2.846219e-01 1.898611e-03 0.000000e+00
 3.255270e-01 3.790372e-03 0.000000e+00
 3.260775e-01 3.974607e-03 0.000000e+00
 2.853754e-01 2.134677e-03 0.000000e+00
 1.528147e-01 -1.645033e-01 0.000000e+00
 3.278444e-02 -3.191333e-01 0.000000e+00
 3.287437e-01 -3.142974e-02 0.000000e+00
 1.036600e-02 -1.052934e-02 0.000000e+00
 4.176037e-04 -1.728830e-01 0.000000e+00
 2.296574e-01 8.590617e-04 0.000000e+00
 1.737559e-01 6.458641e-04 0.000000e+00
 9.183207e-04 -2.293838e-01 0.000000e+00
 6.464168e-02 -2.488659e-01 0.000000e+00
 3.150472e-01 -1.498995e-01 0.000000e+00
 3.271817e-01 -9.931537e-05 0.000000e+00
 1.060743e-02 -3.307771e-01 0.000000e+00
 7.626489e-02 -7.919360e-02 0.000000e+00
 1.885286e-01 -5.321988e-02 0.000000e+00
 2.796765e-01 -3.233366e-02 0.000000e+00
 9.145475e-03 -2.905468e-01 0.000000e+00
 3.621392e-03 -3.146601e-01 0.000000e+00
 9.532296e-02 -3.431050e-01 0.000000e+00
 5.352501e-02 -1.726756e-01 0.000000e+00
 3.064330e-01 -4.990844e-03 0.000000e+00
 3.191747e-01 -3.645509e-03 0.000000e+00
 2.024991e-02 -2.636798e-01 0.000000e+00
 1.953839e-02 -3.296374e-01 0.000000e+00
 3.194484e-01 2.007403e-03 0.000000e+00
 3.216534e-01 2.548412e-03 0.000000e+00
 3.322795e-01 -7.280794e-02 0.000000e+00
 1.103335e-01 -3.214023e-02 0.000000e+00
 2.562978e-01 -7.432959e-02 0.000000e+00
 2.202968e-03 -2.597168e-01 0.000000e+00
 9.864494e-03 -3.231321e-01 0.000000e+00
 2.203076e-02 -4.543941e-02 0.000000e+00
 2.682408e-03 -2.524486e-01 0.000000e+00
 2.069995e-01 -8.791801e-03 0.000000e+00
 2.023670e-01 -2.737740e-01 0.000000e+00
 2.721235e-01 -8.747282e-03 0.000000e+00
 2.074104e-01 -2.166979e-02 0.000000e+00
 2.984467e-02 -1.912131e-01 0.000000e+00
 4.648912e-03 -3.277257e-01 0.000000e+00
 6.408565e-02 -3.045319e-01 0.000000e+00
 2.787802e-02 -2.352881e-01 0.000000e+00
 1.010113e-01 -2.068313e-01 0.000000e+00
 2.977253e-02 -1.051172e-01 0.000000e+00
 3.380043e-01 -2.592498e-02 0.000000e+00
 3.047994e-01 -5.828264e-02 0.000000e+00
 2.049488e-01 -1.190905e-01 0.000000e+00
 4.613434e-02 -3.438257e-01 0.000000e+00
 1.870130e-02 -3.273998e-01 0.000000e+00
 3.288791e-01 -9.001479e-03 0.000000e+00
 3.266905e-01 3.269695e-03 0.000000e+00
 2.444226e-01 4.463832e-04 0.000000e+00
 2.767451e-01 1.390286e-03 0.000000e+00
 1.407569e-01 -9.865197e-02 0.000000e+00
 5.921994e-02 -3.391076e-01 0.000000e+00
 4.632863e-02 -2.373515e-02 0.000000e+00
 7.982384e-03 -3.096378e-01 0.000000e+00
 1.685095e-02 -2.819774e-01 0.000000e+00
 1.248768e-01 -1.471241e-02 0.000000e+00
 8.041632e-03 -2.444641e-01 0.000000e+00
 2.033420e-02 -2.991890e-01 0.000000e+00
 3.162373e-01 -9.745215e-04 0.000000e+00
 2.654993e-03 -3.189530e-01 0.000000e+00
 1.203259e-03 -2.468596e-01 0.000000e+00
 7.923720e-03 -3.110743e-01 0.000000e+00
 1.239800e-01 -2.825364e-01 0.000000e+00
 9.125021e-02 -1.420992e-01 0.000000e+00
 2.957466e-01 -2.556941e-01 0.000000e+00
 2.541750e-01 -1.262964e-03 0.000000e+00
 3.358076e-01 -7.474325e-02 0.000000e+00
 3.247472e-01 -5.551623e-04 0.000000e+00
 3.103138e-01 -2.894977e-02 0.000000e+00
 2.303680e-01 -1.939407e-01 0.000000e+00
 3.212600e-01 -1.475084e-02 0.000000e+00
 1.629762e-02 -1.242066e-01 0.000000e+00
 2.195448e-01 1.412145e-03 0.000000e+00
 4.265670e-02 -2.753005e-01 0.000000e+00
 2.462130e-01 -2.391703e-03 0.000000e+00
 3.585782e-02 -2.963738e-01 0.000000e+00
 6.167391e-02 -2.094543e-01 0.000000e+00
 2.820070e-03 -2.023027e-01 0.000000e+00
 2.461459e-01 1.271220e-03 0.000000e+00
 6.258863e-03 -2.427568e-01 0.000000e+00
 9.169809e-03 -1.502046e-01 0.000000e+00
 7.638662e-03 -1.717721e-01 0.000000e+00
 1.682340e-02 -3.335865e-01 0.000000e+00
 2.692077e-02 -3.347973e-01 0.000000e+00
 3.332461e-01 -1.603920e-02 0.000000e+00
 4.817266e-03 -1.749193e-01 0.000000e+00
 1.617169e-02 -3.157468e-01 0.000000e+00
 1.596694e-01 -1.809020e-02 0.000000e+00
 5.583296e-03 -3.253571e-01 0.000000e+00
 1.714015e-01 -3.495587e-01 0.000000e+00
 1.617993e-01 -2.257225e-01 0.000000e+00
 2.398399e-01 -6.980564e-04 0.000000e+00
 2.608825e-01 -1.290062e-01 0.000000e+00
 3.254545e-01 -5.479046e-03 0.000000e+00
 1.679265e-01 6.047382e-04 0.000000e+00
 2.962051e-01 -9.901680e-02 0.000000e+00
 1.395974e-01 2.883485e-04 0.000000e+00
 1.388800e-01 4.283307e-04 0.000000e+00
 0.000000e+00 0.000000e+00 0.000000e+00
 2.092864e-01 -1.658975e-02 0.000000e+00
 2.627934e-01 -1.087294e-01 0.000000e+00
 0.000000e+00 0.000000e+00 0.000000e+00
 3.809626e-03 -8.350780e-03 0.000000e+00
 1.299612e-03 -1.283693e-03 0.000000e+00
 0.000000e+00 0.000000e+00 0.000000e+00
 3.395592e-01 -1.715578e-01 0.000000e+00
 2.687444e-01 -2.639974e-01 0.000000e+00
 3.554224e-04 -1.382292e-01 0.000000e+00
 3.557093e-04 -1.375144e-01 0.000000e+00
 0.000000e+00 0.000000e+00 0.000000e+00
 7.890717e-04 -2.383242e-01 0.000000e+00
 1.915941e-04 -9.868967e-02 0.000000e+00
 5.037585e-04 -1.889678e-01 0.000000e+00
 1.540234e-04 -9.809053e-02 0.000000e+00
 0.000000e+00 0.000000e+00 0.000000e+00
 7.226674e-04 -2.147627e-01 0.000000e+00
 4.190762e-04 -1.556197e-01 0.000000e+00
 2.586339e-02 -1.777758e-02 0.000000e+00
 2.167720e-02 -7.180678e-03 0.000000e+00
 8.611644e-03 -4.044777e-03 0.000000e+00
 1.000425e-03 -1.603337e-01 0.000000e+00
 6.648214e-04 -1.619876e-01 0.000000e+00
 0.000000e+00 0.000000e+00 0.000000e+00
 3.777552e-02 -7.981425e-03 0.000000e+00
 0.000000e+00 0.000000e+00 0.000000e+00
 0.000000e+00 0.000000e+00 0.000000e+00
 1.224788e-01 -2.292379e-02 0.000000e+00
 7.049921e-02 -4.835578e-03 0.000000e+00
 8.206430e-02 -1.028893e-02 0.000000e+00
 2.869564e-03 -2.297973e-01 0.000000e+00
 7.798064e-04 -1.209503e-01 0.000000e+00
 1.105892e-03 -1.183692e-01 0.000000e+00
 0.000000e+00 0.000000e+00 0.000000e+00
 3.617146e-02 -3.728575e-02 0.000000e+00
 1.691985e-02 -2.581369e-02 0.000000e+00
 6.327933e-02 -1.046637e-02 0.000000e+00
 0.000000e+00 0.000000e+00 0.000000e+00
 8.291350e-02 -4.481892e-03 0.000000e+00
 0.000000e+00 0.000000e+00 0.000000e+00
 1.426319e-01 -6.261118e-03 0.000000e+00
 1.290219e-01 -7.429966e-03 0.000000e+00
 0.000000e+00 0.000000e+00 0.000000e+00
 2.425680e-01 -4.644445e-02 0.000000e+00
 2.048196e-01 -3.652583e-02 0.000000e+00
 2.235432e-01 -6.606674e-02 0.000000e+00
 1.312857e-01 -2.157744e-03 0.000000e+00
 1.242151e-01 -3.086002e-03 0.000000e+00
 0.000000e+00 0.000000e+00 0.000000e+00
 2.434904e-01 -9.446441e-03 0.000000e+00
 1.825911e-01 -3.062608e-03 0.000000e+00
 2.143374e-01 9.374586e-04 0.000000e+00
 1.532825e-01 4.690652e-04 0.000000e+00
 9.804823e-02 2.190114e-04 0.000000e+00
 6.611363e-03 -2.134646e-01 0.000000e+00
 1.310377e-03 -1.046193e-01 0.000000e+00
 2.498502e-03 -1.582973e-01 0.000000e+00
 1.655112e-03 -1.002106e-01 0.000000e+00
 0.000000e+00 0.000000e+00 0.000000e+00
 1.293523e-01 -2.156515e-01 0.000000e+00
 1.582983e-01 -1.936631e-01 0.000000e+00
 1.267328e-01 -1.876935e-01 0.000000e+00
 2.110003e-02 -2.320682e-01 0.000000e+00
 7.030793e-02 -2.790505e-01 0.000000e+00
 0.000000e+00 0.000000e+00 0.000000e+00
 3.098689e-02 -3.089849e-01 0.000000e+00
 8.491249e-03 -1.876064e-01 0.000000e+00
 1.017532e-02 -2.612174e-01 0.000000e+00
 2.529365e-03 -1.486788e-01 0.000000e+00
 4.632743e-03 -1.737627e-01 0.000000e+00
 1.582354e-03 -1.439494e-01 0.000000e+00
 0.000000e+00 0.000000e+00 0.000000e+00
 2.621744e-03 -3.198683e-01 0.000000e+00
 1.910804e-03 -3.034801e-01 0.000000e+00
 1.883457e-03 -3.128723e-01 0.000000e+00
 2.117080e-01 8.964698e-04 0.000000e+00
 9.478940e-02 2.345235e-04 0.000000e+00
 2.426276e-01 1.369934e-03 0.000000e+00
 9.888316e-02 3.248077e-04 0.000000e+00
 1.930200e-01 9.065533e-04 0.000000e+00
 2.619132e-01 -4.930534e-03 0.000000e+00
 1.556451e-01 -5.795886e-04 0.000000e+00
 1.870433e-01 -1.811841e-03 0.000000e+00
 2.522071e-01 1.330436e-03 0.000000e+00
 1.301746e-01 7.433723e-04 0.000000e+00
 1.824707e-01 8.762923e-04 0.000000e+00
 2.433788e-01 -1.399121e-03 0.000000e+00
 1.476352e-01 -3.430872e-04 0.000000e+00
 0.000000e+00 0.000000e+00 0.000000e+00
 1.289021e-01 1.050760e-03 0.000000e+00
 0.000000e+00 0.000000e+00 0.000000e+00
 2.634101e-03 -9.717782e-02 0.000000e+00
 2.205511e-03 -1.038489e-01 0.000000e+00
 0.000000e+00 0.000000e+00 0.000000e+00
 1.644665e-02 -2.139166e-01 0.000000e+00
 1.419000e-02 -2.274388e-01 0.000000e+00
 2.411459e-02 -2.507144e-01 0.000000e+00
 6.379588e-04 -1.627615e-01 0.000000e+00
 1.089347e-03 -1.647549e-01 0.000000e+00
 0.000000e+00 0.000000e+00 0.000000e+00
 2.315972e-02 -1.590530e-01 0.000000e+00
 5.015330e-03 -8.131587e-02 0.000000e+00
 9.697296e-03 -1.256919e-01 0.000000e+00
 3.261989e-01 2.732725e-03 0.000000e+00
 3.264030e-01 3.756188e-03 0.000000e+00
 3.238671e-01 3.078590e-03 0.000000e+00
 1.531448e-01 1.557105e-03 0.000000e+00
 1.510565e-01 1.563160e-03 0.000000e+00
 0.000000e+00 0.000000e+00 0.000000e+00
 5.228501e-03 -6.928607e-02 0.000000e+00
 0.000000e+00 0.000000e+00 0.000000e+00
 9.422537e-03 -5.855553e-02 0.000000e+00
 9.178357e-03 -7.494618e-02 0.000000e+00
 0.000000e+00 0.000000e+00 0.000000e+00
 3.009979e-03 -3.283259e-01 0.000000e+00
 3.030080e-03 -3.252780e-01 0.000000e+00
 2.621834e-03 -3.262758e-01 0.000000e+00
 1.802942e-03 -3.078210e-01 0.000000e+00
 2.474083e-03 -3.271332e-01 0.000000e+00
 2.074957e-03 -3.233484e-01 0.000000e+00
 2.615052e-01 1.402431e-03 0.000000e+00
 1.931791e-01 8.204142e-04 0.000000e+00
 1.514954e-01 2.606008e-04 0.000000e+00
 1.518480e-01 1.382230e-04 0.000000e+00
 0.000000e+00 0.000000e+00 0.000000e+00
 3.266092e-01 -1.281465e-02 0.000000e+00
 3.240445e-01 -2.246022e-02 0.000000e+00
 3.297361e-01 -1.795334e-02 0.000000e+00
 3.265065e-01 3.909279e-03 0.000000e+00
 3.264944e-01 4.135664e-03 0.000000e+00
 1.784240e-03 -2.908641e-01 0.000000e+00
 1.158185e-03 -2.654074e-01 0.000000e+00
 6.436545e-04 -1.975312e-01 0.000000e+00
 1.719306e-01 -1.097330e-01 0.000000e+00
 1.469865e-01 -1.305296e-01 0.000000e+00
 1.800141e-01 -1.432373e-01 0.000000e+00
 1.161169e-01 -1.215157e-01 0.000000e+00
 1.207886e-01 -1.532321e-01 0.000000e+00
 4.846839e-02 -2.997990e-01 0.000000e+00
 3.539528e-02 -3.087194e-01 0.000000e+00
 4.659389e-02 -3.141822e-01 0.000000e+00
 2.942365e-01 1.539603e-03 0.000000e+00
 3.071996e-01 2.232433e-03 0.000000e+00
 3.358493e-01 -2.058821e-02 0.000000e+00
 3.327193e-01 -2.395148e-02 0.000000e+00
 3.367881e-01 -3.109426e-02 0.000000e+00
 3.110249e-01 2.719373e-03 0.000000e+00
 3.245422e-01 3.418837e-03 0.000000e+00
 3.186369e-01 3.285381e-03 0.000000e+00
 2.271031e-02 -3.308204e-01 0.000000e+00
 3.085253e-02 -3.282569e-01 0.000000e+00
 2.517329e-02 -3.243222e-01 0.000000e+00
 2.627185e-03 -2.991523e-01 0.000000e+00
 1.370232e-03 -2.452099e-01 0.000000e+00
 3.186515e-01 -9.047385e-02 0.000000e+00
 3.053919e-01 -1.222148e-01 0.000000e+00
 3.307990e-01 -1.090386e-01 0.000000e+00
 6.584288e-03 -2.066938e-02 0.000000e+00
 7.016441e-03 -3.498707e-02 0.000000e+00
 0.000000e+00 0.000000e+00 0.000000e+00
 3.176493e-01 2.996757e-03 0.000000e+00
 5.923073e-02 -1.290874e-01 0.000000e+00
 8.439280e-02 -1.105057e-01 0.000000e+00
 5.224613e-02 -9.766135e-02 0.000000e+00
 3.188242e-01 -6.829115e-02 0.000000e+00
 3.322811e-01 -4.889387e-02 0.000000e+00
 3.201758e-01 -4.564174e-02 0.000000e+00
 2.829067e-01 -6.888235e-02 0.000000e+00
 2.933654e-01 -4.574806e-02 0.000000e+00
 2.714576e-01 -5.134203e-02 0.000000e+00
 2.346055e-03 -2.950214e-01 0.000000e+00
 1.131971e-03 -2.649649e-01 0.000000e+00
 5.392685e-03 -3.295373e-01 0.000000e+00
 7.892274e-03 -3.298862e-01 0.000000e+00
 7.184734e-03 -3.291314e-01 0.000000e+00
 1.861814e-02 -3.089110e-01 0.000000e+00
 2.336247e-02 -3.170843e-01 0.000000e+00
 2.702482e-02 -3.097771e-01 0.000000e+00
 2.950757e-02 -2.142765e-01 0.000000e+00
 4.458645e-02 -2.463193e-01 0.000000e+00
 4.760972e-02 -2.246692e-01 0.000000e+00
 9.056856e-02 -2.975291e-01 0.000000e+00
 9.173713e-02 -2.626684e-01 0.000000e+00
 6.786531e-02 -2.778568e-01 0.000000e+00
 2.380491e-01 -3.178987e-01 0.000000e+00
 1.767105e-01 -3.351819e-01 0.000000e+00
 2.374266e-01 7.040606e-04 0.000000e+00
 0.000000e+00 0.000000e+00 0.000000e+00
 3.022139e-01 2.090861e-03 0.000000e+00
 2.681990e-01 1.742944e-03 0.000000e+00
 3.183009e-01 8.066580e-04 0.000000e+00
 3.260449e-01 -8.540347e-04 0.000000e+00
 3.263380e-01 1.368398e-03 0.000000e+00
 3.594529e-02 -2.581721e-01 0.000000e+00
 5.315095e-02 -2.637982e-01 0.000000e+00
 1.153646e-02 -3.141797e-01 0.000000e+00
 1.286539e-02 -3.075297e-01 0.000000e+00
 8.721675e-03 -3.026934e-01 0.000000e+00
 5.907796e-02 -3.290142e-01 0.000000e+00
 6.696694e-02 -3.462391e-01 0.000000e+00
 7.960000e-02 -3.219373e-01 0.000000e+00
 3.261086e-01 2.997003e-03 0.000000e+00
 3.269145e-01 1.932090e-03 0.000000e+00
 3.263096e-01 1.671606e-03 0.000000e+00
 3.074283e-01 -1.305061e-02 0.000000e+00
 3.171368e-01 -9.248015e-03 0.000000e+00
 2.923089e-01 -7.058348e-03 0.000000e+00
 3.279067e-01 -3.974684e-03 0.000000e+00
 3.269261e-01 -5.701238e-04 0.000000e+00
 3.276079e-01 -3.443875e-03 0.000000e+00
 2.320047e-01 -1.258368e-01 0.000000e+00
 2.580614e-01 -9.966943e-02 0.000000e+00
 2.329208e-01 -9.731660e-02 0.000000e+00
 3.504302e-01 -8.202988e-02 0.000000e+00
 3.478649e-01 -1.306715e-01 0.000000e+00
 1.314131e-01 -6.426740e-02 0.000000e+00
 1.673210e-01 -7.605668e-02 0.000000e+00
 1.500108e-01 -4.331875e-02 0.000000e+00
 1.423083e-01 -1.653780e-02 0.000000e+00
 1.024494e-01 -5.530553e-03 0.000000e+00
 9.718813e-02 -1.740136e-01 0.000000e+00
 7.178333e-02 -1.596724e-01 0.000000e+00
 7.667745e-02 -1.905747e-01 0.000000e+00
 3.080915e-01 -4.187518e-02 0.000000e+00
 2.971491e-01 -3.182983e-02 0.000000e+00
 6.976132e-03 -3.258730e-01 0.000000e+00
 1.068043e-02 -3.273729e-01 0.000000e+00
 1.237108e-02 -3.277592e-01 0.000000e+00
 1.348880e-02 -3.321218e-01 0.000000e+00
 1.005050e-02 -3.287794e-01 0.000000e+00
 1.406575e-02 -2.814652e-01 0.000000e+00
 2.099302e-02 -2.842532e-01 0.000000e+00
 1.328878e-02 -2.579864e-01 0.000000e+00
 4.490322e-03 -3.233473e-01 0.000000e+00
 7.704097e-02 -2.852085e-02 0.000000e+00
 6.424431e-02 -4.998763e-02 0.000000e+00
 9.818411e-02 -5.589059e-02 0.000000e+00
 2.626220e-02 -7.430821e-02 0.000000e+00
 4.732951e-02 -6.521071e-02 0.000000e+00
 5.164228e-03 -2.933405e-01 0.000000e+00
 5.265919e-03 -2.765206e-01 0.000000e+00
 9.189535e-03 -3.186823e-01 0.000000e+00
 5.449348e-03 -3.131869e-01 0.000000e+00
 6.243331e-03 -3.202819e-01 0.000000e+00
 3.168854e-01 -2.128402e-02 0.000000e+00
 3.004224e-01 -1.777202e-02 0.000000e+00
 2.112488e-01 -1.454086e-02 0.000000e+00
 2.489060e-01 -2.878531e-02 0.000000e+00
 2.566576e-01 -1.954811e-02 0.000000e+00
 5.393299e-02 -3.503849e-01 0.000000e+00
 8.530454e-02 -3.585789e-01 0.000000e+00
 3.146233e-01 -1.981036e-01 0.000000e+00
 1.485155e-01 -8.360910e-06 0.000000e+00
 0.000000e+00 0.000000e+00 0.000000e+00
 2.819980e-01 -1.824554e-02 0.000000e+00
 8.024479e-02 -2.091744e-01 0.000000e+00
 6.381256e-02 -2.294486e-01 0.000000e+00
 8.282733e-02 -2.303519e-01 0.000000e+00
 2.262332e-02 -1.178416e-01 0.000000e+00
 3.348293e-02 -1.560279e-01 0.000000e+00
 4.199428e-02 -1.399495e-01 0.000000e+00
 6.867193e-03 -3.196763e-01 0.000000e+00
 3.968342e-03 -3.062197e-01 0.000000e+00
 4.359353e-03 -2.882975e-01 0.000000e+00
 1.958860e-01 -2.138663e-01 0.000000e+00
 1.816588e-01 -2.485450e-01 0.000000e+00
 2.217168e-01 -2.339141e-01 0.000000e+00
 2.733603e-02 -2.985175e-01 0.000000e+00
 2.843892e-02 -2.839131e-01 0.000000e+00
 3.246954e-03 -8.107838e-02 0.000000e+00
 2.837509e-03 -8.944384e-02 0.000000e+00
 0.000000e+00 0.000000e+00 0.000000e+00
 3.958719e-02 -2.867294e-01 0.000000e+00
 5.395060e-02 -2.889451e-01 0.000000e+00
 1.450572e-01 -2.566555e-01 0.000000e+00
 1.150103e-01 -2.416935e-01 0.000000e+00
 4.520768e-02 -2.040890e-01 0.000000e+00
 5.810992e-02 -1.914242e-01 0.000000e+00
 4.107702e-02 -1.849645e-01 0.000000e+00
 3.228813e-01 -2.802795e-03 0.000000e+00
 3.271046e-01 -2.501447e-03 0.000000e+00
 3.153597e-01 -1.224113e-02 0.000000e+00
 2.991635e-01 -2.868606e-03 0.000000e+00
 3.279033e-01 -1.094674e-02 0.000000e+00
 2.801655e-01 -1.149906e-01 0.000000e+00
 2.746764e-01 -8.793380e-02 0.000000e+00
 3.433678e-01 -4.926649e-02 0.000000e+00
 3.397804e-01 -4.272840e-02 0.000000e+00
 1.988673e-01 -8.470565e-02 0.000000e+00
 2.651806e-01 -2.283446e-01 0.000000e+00
 2.469056e-01 -2.771915e-01 0.000000e+00
 0.000000e+00 0.000000e+00 0.000000e+00
 4.061984e-02 -3.308156e-01 0.000000e+00
 3.501498e-02 -3.387034e-01 0.000000e+00
 2.403648e-02 -3.367762e-01 0.000000e+00
 3.082308e-02 -3.400871e-01 0.000000e+00
 1.384905e-02 -3.248887e-01 0.000000e+00
 1.438822e-02 -3.298582e-01 0.000000e+00
 3.124808e-01 8.660114e-04 0.000000e+00
 3.228312e-01 -2.062034e-03 0.000000e+00
 3.015186e-01 4.664214e-04 0.000000e+00
 3.307287e-01 -1.216293e-02 0.000000e+00
 3.294156e-01 -9.034394e-03 0.000000e+00
 3.291857e-01 -7.360712e-03 0.000000e+00
 2.936718e-01 1.177059e-04 0.000000e+00
 2.978627e-01 1.075320e-03 0.000000e+00
 2.359128e-01 1.181877e-03 0.000000e+00
 2.873410e-01 1.302642e-04 0.000000e+00
 3.229113e-01 1.499142e-03 0.000000e+00
 1.080752e-01 -8.967859e-02 0.000000e+00
 1.143367e-01 -3.627812e-01 0.000000e+00
 1.262699e-01 -3.506814e-01 0.000000e+00
 7.604770e-03 -2.848877e-01 0.000000e+00
 1.266521e-02 -3.018764e-01 0.000000e+00
 1.268327e-02 -3.198865e-01 0.000000e+00
 2.883823e-03 -2.191629e-01 0.000000e+00
 3.360888e-02 -3.375079e-01 0.000000e+00
 1.944095e-02 -3.149982e-01 0.000000e+00
 1.652055e-01 -3.257759e-02 0.000000e+00
 1.838297e-01 -2.021402e-02 0.000000e+00
 1.820256e-01 -3.426231e-02 0.000000e+00
 6.162972e-03 -1.742379e-01 0.000000e+00
 1.152295e-02 -2.327900e-01 0.000000e+00
 4.956238e-03 -2.268842e-01 0.000000e+00
 5.802435e-03 -2.593160e-01 0.000000e+00
 8.983550e-03 -2.712935e-01 0.000000e+00
 1.802480e-02 -3.216421e-01 0.000000e+00
 1.293080e-02 -3.201380e-01 0.000000e+00
 1.397598e-02 -2.968803e-01 0.000000e+00
 3.239094e-01 -9.497119e-03 0.000000e+00
 3.199975e-01 -5.668953e-03 0.000000e+00
 2.920850e-01 -1.068771e-03 0.000000e+00
 2.833919e-01 -2.279366e-03 0.000000e+00
 3.121549e-01 -2.779695e-03 0.000000e+00
 3.829804e-03 -3.223092e-01 0.000000e+00
 3.762751e-03 -3.289019e-01 0.000000e+00
 1.771776e-03 -2.500583e-01 0.000000e+00
 3.517997e-03 -2.957198e-01 0.000000e+00
 1.150588e-01 -3.171803e-01 0.000000e+00
 1.498281e-01 -3.170293e-01 0.000000e+00
 1.953791e-01 -3.143257e-01 0.000000e+00
 1.600423e-01 -2.825988e-01 0.000000e+00
 2.912792e-01 -1.942378e-02 0.000000e+00
 3.012717e-01 -7.687055e-02 0.000000e+00
 3.085247e-01 1.754674e-03 0.000000e+00
 3.199391e-01 -3.210202e-02 0.000000e+00
 2.164165e-01 -1.535274e-01 0.000000e+00
 1.880385e-01 -1.798787e-01 0.000000e+00