<?xml version="1.0"?>
<VTKFile type="UnstructuredGrid"  version="0.1"  >
<UnstructuredGrid>
<Piece  NumberOfPoints="505" NumberOfCells="928">
<Points>
<DataArray  type="Float32"  NumberOfComponents="3"  format="ascii">
0 0 0
1 0 0
0 1 0
1 0.5 0
0.5 0.5 0
0.5 1 0
0.1 0 0
0.2 0 0
0.3 0 0
0.4 0 0
0.5 0 0
0.6 0 0
0.7 0 0
0.8 0 0
0.9 0 0
0 0.9 0
0 0.8 0
0 0.7 0
0 0.6 0
0 0.5 0
0 0.4 0
0 0.3 0
0 0.2 0
0 0.1 0
0.9 0.5 0
0.8 0.5 0
0.7 0.5 0
0.6 0.5 0
0.5 0.6 0
0.5 0.7 0
0.5 0.8 0
0.5 0.9 0
0.1 1 0
0.2 1 0
0.3 1 0
0.4 1 0
1 0.1 0
1 0.2 0
1 0.3 0
1 0.4 0
0.300178 0.296564 0
0.247566 0.664879 0
0.639694 0.259804 0
0.06564 0.06472 0
0.04439 0.954144 0
0.932418 0.064715 0
0.951013 0.456419 0
0.437622 0.939659 0
0.195334 0.464441 0
0.483382 0.329596 0
0.834786 0.236295 0
0.307228 0.81139 0
0.178229 0.173372 0
0.366998 0.134199 0
0.547485 0.14214 0
0.124832 0.74927 0
0.160163 0.896658 0
0.342556 0.535243 0
0.147651 0.342018 0
0.729803 0.127878 0
0.725981 0.357775 0
0.121369 0.600441 0
0.372954 0.70814 0
0.908503 0.151525 0
0.89851 0.333305 0
0.556275 0.400898 0
0.259184 0.092178 0
0.46329 0.194362 0
0.423773 0.869712 0
0.22823 0.818162 0
0.081292 0.144905 0
0.082979 0.831935 0
0.549999 0.065419 0
0.371537 0.407588 0
0.642628 0.097865 0
0.459835 0.086595 0
0.108565 0.418567 0
0.273082 0.902112 0
0.256598 0.556659 0
0.11951 0.509541 0
0.234147 0.370527 0
0.097453 0.253261 0
0.638438 0.342389 0
0.554656 0.224779 0
0.373432 0.237603 0
0.339663 0.62579 0
0.27079 0.747786 0
0.733958 0.266592 0
0.928527 0.244458 0
0.853116 0.071497 0
0.818426 0.404817 0
0.280194 0.200604 0
0.417859 0.565185 0
0.147241 0.079056 0
0.389149 0.789957 0
0.42808 0.654642 0
0.343469 0.059202 0
0.086765 0.684153 0
0.162043 0.675011 0
0.809252 0.14201 0
0.364337 0.928607 0
0.077532 0.916553 0
0.159064 0.807906 0
0.302124 0.454032 0
0.205909 0.272176 0
0.449664 0.407415 0
0.66041 0.423241 0
0.562201 0.303789 0
0.802658 0.320211 0
0.614551 0.182931 0
0.390944 0.331035 0
0.687136 0.18846 0
0.070577 0.342498 0
0.741087 0.437361 0
0.176989 0.547528 0
0.710251 0.07409 0
0.192845 0.608574 0
0.171114 0.398277 0
0.058959 0.753084 0
0.904 0.425508 0
0.438039 0.730373 0
0.057223 0.475897 0
0.058502 0.552106 0
0.330493 0.750997 0
0.312295 0.699131 0
0.684882 0.307111 0
0.053312 0.627311 0
0.198798 0.743695 0
0.392326 0.069953 0
0.351519 0.860283 0
0.397134 0.477694 0
0.319385 0.371198 0
0.767351 0.069505 0
0.441954 0.271171 0
0.759504 0.192785 0
0.855661 0.457701 0
0.500847 0.264652 0
0.916209 0.0323575 0
0.966209 0.0323575 0
0.95 0 0
0.578137 0.450449 0
0.528137 0.450449 0
0.55 0.5 0
0.03282 0.08236 0
0.03282 0.03236 0
0 0.05 0
0.502969 0.404157 0
0.474832 0.453708 0
0.468811 0.91983 0
0.468811 0.96983 0
0.5 0.95 0
0.072195 0.977072 0
0.022195 0.977072 0
0.05 1 0
0.022195 0.927072 0
0 0.95 0
0.060961 0.935348 0
0.038766 0.908276 0
0.106441 0.071888 0
0.123621 0.039528 0
0.08282 0.03236 0
0.0414895 0.815967 0
0.0414895 0.865968 0
0 0.85 0
0.173621 0.039528 0
0.15 0 0
0.05 0 0
0.301327 0.07569 0
0.321735 0.029601 0
0.279592 0.046089 0
0.070969 0.792509 0
0.0294795 0.776542 0
0.0294795 0.726542 0
0 0.75 0
0.114267 0.111981 0
0.073466 0.104813 0
0.229592 0.046089 0
0.25 0 0
0.371735 0.029601 0
0.35 0 0
0.479917 0.0432975 0
0.429918 0.0432975 0
0.45 0 0
0.461562 0.140479 0
0.413416 0.110397 0
0.415144 0.16428 0
0.574999 0.0327095 0
0.525 0.0327095 0
0.55 0 0
0.596313 0.081642 0
0.621314 0.0489325 0
0.927507 0.440964 0
0.902 0.462754 0
0.925507 0.47821 0
0.0700385 0.655732 0
0.026656 0.663655 0
0.0433825 0.692076 0
0.026656 0.613655 0
0 0.65 0
0.276766 0.370862 0
0.309781 0.333881 0
0.267162 0.333545 0
0.458929 0.582593 0
0.458929 0.532593 0
0.5 0.55 0
0.422969 0.609913 0
0.46404 0.627321 0
0.43306 0.692508 0
0.46902 0.715186 0
0.46404 0.677321 0
0.46902 0.765186 0
0.5 0.75 0
0.180082 0.948329 0
0.130082 0.948329 0
0.15 1 0
0.87983 0.441605 0
0.87783 0.478851 0
0.975507 0.42821 0
0.975507 0.47821 0
1 0.45 0
0.676439 0.0859775 0
0.705125 0.037045 0
0.671314 0.0489325 0
0.779756 0.421089 0
0.770544 0.46868 0
0.809213 0.452408 0
0.738801 0.0717975 0
0.733675 0.0347525 0
0.95 0.5 0
0.720544 0.46868 0
0.75 0.5 0
0.029251 0.526053 0
0.029251 0.576053 0
0 0.55 0
0.089006 0.530824 0
0.0899355 0.576273 0
0.12044 0.554991 0
0.461886 0.884856 0
0.461886 0.834856 0
0.5 0.85 0
0.089571 0.380533 0
0.0352885 0.371249 0
0.0542825 0.409284 0
0.918515 0.197991 0
0.964263 0.222229 0
0.954252 0.175762 0
0.630205 0.46162 0
0.680205 0.46162 0
0.65 0.5 0
0.0352885 0.321249 0
0 0.35 0
0.0487265 0.226631 0
0.0487265 0.276631 0
0 0.25 0
0.286541 0.951056 0
0.236541 0.951056 0
0.25 1 0
0.382169 0.964303 0
0.332168 0.964303 0
0.35 1 0
0.966209 0.0823575 0
1 0.05 0
0.876558 0.0357485 0
0.826558 0.0357485 0
0.85 0 0
0.710547 0.227526 0
0.663415 0.224132 0
0.686826 0.263198 0
0.964263 0.272229 0
1 0.25 0
0.40098 0.934133 0
0.418811 0.96983 0
0.45 1 0
0.326813 0.219104 0
0.290186 0.248584 0
0.336805 0.267084 0
0.243052 0.23639 0
0.253043 0.28437 0
0.224721 0.582616 0
0.220205 0.636726 0
0.252082 0.610769 0
0.92046 0.10812 0
0.954252 0.125762 0
0.66166 0.32475 0
0.662288 0.283458 0
0.639066 0.301096 0
0.949255 0.366653 0
0.949255 0.316653 0
1 0.35 0
0.291542 0.723459 0
0.27993 0.682005 0
0.259178 0.706333 0
0.394055 0.89916 0
0.430698 0.904686 0
0.531524 0.28422 0
0.492115 0.297124 0
0.522791 0.316692 0
0.040646 0.122453 0
0.040646 0.172453 0
0 0.15 0
1 0.15 0
0.151681 0.262718 0
0.192069 0.222774 0
0.137841 0.213317 0
0.558428 0.264284 0
0.600947 0.281797 0
0.597175 0.242291 0
0.508973 0.20957 0
0.551071 0.183459 0
0.505387 0.168251 0
0.118847 0.906605 0
0.088766 0.958276 0
0.3123 0.881198 0
0.329373 0.835836 0
0.290155 0.856751 0
0.18042 0.709353 0
0.223182 0.704287 0
0.204805 0.669945 0
0.114037 0.464054 0
0.157422 0.486991 0
0.15195 0.441504 0
0.279361 0.505346 0
0.248729 0.459236 0
0.225966 0.51055 0
0.423399 0.442555 0
0.448567 0.488847 0
0.892767 0.068106 0
0.65 0 0
0.901255 0.379406 0
0.952 0.412754 0
0.858877 0.146767 0
0.822019 0.189153 0
0.871644 0.19391 0
0.14825 0.528535 0
0.186162 0.505985 0
0.178931 0.775801 0
0.161815 0.746482 0
0.141948 0.778588 0
0.29813 0.591225 0
0.34111 0.580516 0
0.299577 0.545951 0
0.913519 0.288882 0
0.881657 0.240376 0
0.866648 0.2848 0
0.664882 0.143162 0
0.708469 0.158169 0
0.686215 0.112871 0
0.768308 0.293401 0
0.818722 0.278253 0
0.784372 0.251443 0
0.407693 0.254387 0
0.452622 0.232766 0
0.418361 0.215983 0
0.559238 0.352343 0
0.519829 0.365247 0
0.269689 0.146391 0
0.323596 0.167402 0
0.313091 0.113188 0
0.367897 0.0645775 0
0.396163 0.0349765 0
0.220028 0.321352 0
0.17678 0.307097 0
0.190899 0.356272 0
0.584604 0.203855 0
0.581018 0.162535 0
0.250656 0.860137 0
0.267729 0.814776 0
0.359821 0.770477 0
0.31886 0.781193 0
0.348189 0.800674 0
0.124404 0.679582 0
0.141706 0.637726 0
0.104067 0.642297 0
0.216622 0.899385 0
0.203213 0.085617 0
0.162735 0.126214 0
0.218707 0.132775 0
0.0893725 0.199083 0
0.129761 0.159139 0
0.121022 0.819921 0
0.103905 0.790602 0
0.193647 0.813034 0
0.159614 0.852282 0
0.194196 0.85741 0
0.650843 0.185696 0
0.628589 0.140398 0
0.504917 0.076007 0
0.50366 0.114367 0
0.548742 0.103779 0
0.378761 0.595487 0
0.380208 0.550214 0
0.466523 0.368506 0
0.783675 0.0347525 0
0.75 0 0
0.595056 0.120002 0
0.20263 0.384402 0
0.183224 0.431359 0
0.214741 0.417484 0
0.084015 0.29788 0
0.109114 0.342258 0
0.122552 0.29764 0
0.370334 0.82512 0
0.387646 0.864998 0
0.406461 0.829835 0
0.355164 0.351116 0
0.345461 0.389393 0
0.38124 0.369312 0
0.177444 0.641792 0
0.157107 0.604507 0
0.0286115 0.437949 0
0.0286115 0.487949 0
0 0.45 0
0.184917 0.578051 0
0.216794 0.552094 0
0.310754 0.412615 0
0.268135 0.41228 0
0.13984 0.408422 0
0.159382 0.370147 0
0.128108 0.380293 0
0.784378 0.167398 0
0.797145 0.21454 0
0.649424 0.382815 0
0.693196 0.390508 0
0.682209 0.350082 0
0.471401 0.267911 0
0.482069 0.229507 0
0.600319 0.323089 0
0.597356 0.371644 0
0.370215 0.185901 0
0.420304 0.369225 0
0.410601 0.407502 0
0.5 0.65 0
0.293615 0.645334 0
0.325979 0.66246 0
0.342624 0.703635 0
0.356309 0.666965 0
0.24951 0.782974 0
0.289009 0.779588 0
0.810542 0.362514 0
0.76432 0.338993 0
0.772204 0.381296 0
0.70942 0.286852 0
0.705431 0.332443 0
0.729969 0.312184 0
0.831184 0.106754 0
0.88081 0.111511 0
0.700748 0.430301 0
0.733534 0.397568 0
0.850584 0.326758 0
0.229212 0.186988 0
0.407496 0.52144 0
0.369845 0.506468 0
0.413594 0.760165 0
0.405497 0.719256 0
0.381051 0.749049 0
0.444574 0.794979 0
0.383872 0.640216 0
0.400517 0.681391 0
0.355233 0.0967005 0
0.42608 0.078274 0
0.379662 0.102076 0
0.055907 0.589708 0
0.0873405 0.613876 0
0.072862 0.718619 0
0.0918955 0.751177 0
0.105798 0.716711 0
0.234794 0.74574 0
0.213514 0.780928 0
0.143437 0.712141 0
0.72332 0.190623 0
0.744653 0.160332 0
0.788301 0.105758 0
0.748577 0.0986915 0
0.769527 0.134944 0
0.357928 0.894445 0
0.318709 0.915359 0
0.0802555 0.874244 0
0.121571 0.864297 0
0.32234 0.494638 0
0.349629 0.465863 0
0.384335 0.442641 0
0.336831 0.43081 0
0.608343 0.412069 0
0.527752 0.244716 0
0.858468 0.369061 0
0.627123 0.221367 0
0.382188 0.284319 0
0.345561 0.3138 0
0.437163 0.330315 0
0.746731 0.229689 0
0.149179 0.573985 0
0.720027 0.100984 0
0.810234 0.070501 0
0.861213 0.415162 0
0.827831 0.478851 0
0.85 0.5 0
0.082894 0.447232 0
0.0883665 0.492719 0
0.0578625 0.514002 0
0.300642 0.749391 0
0.351723 0.729569 0
0.321394 0.725064 0
0.416449 0.301103 0
0.462668 0.300384 0
0.837044 0.431259 0
</DataArray>
</Points>
<Cells>
<DataArray  type="UInt32"  Name="connectivity"  format="ascii">
1 138 139 
14 137 139 
45 137 138 
137 138 139 
4 141 142 
27 140 142 
65 140 141 
140 141 142 
0 144 145 
23 143 145 
43 143 144 
143 144 145 
4 141 147 
65 141 146 
105 146 147 
141 146 147 
5 149 150 
31 148 150 
47 148 149 
148 149 150 
2 152 153 
32 151 153 
44 151 152 
151 152 153 
2 152 155 
15 154 155 
44 152 154 
152 154 155 
15 154 157 
44 154 156 
101 156 157 
154 156 157 
6 159 160 
43 158 160 
93 158 159 
158 159 160 
15 162 163 
16 161 163 
71 161 162 
161 162 163 
6 159 165 
7 164 165 
93 159 164 
159 164 165 
[...]
<PointData  Vectors="u"> 
<DataArray  type="Float32"  Name="u"  NumberOfComponents="3" format="ascii">
 0.000000e+00 0.000000e+00 0.000000e+00
 0.000000e+00 0.000000e+00 0.000000e+00
 0.000000e+00 0.000000e+00 0.000000e+00
 0.000000e+00 0.000000e+00 0.000000e+00
 0.000000e+00 0.000000e+00 0.000000e+00
 0.000000e+00 0.000000e+00 0.000000e+00
 0.000000e+00 0.000000e+00 0.000000e+00
 0.000000e+00 0.000000e+00 0.000000e+00
 0.000000e+00 0.000000e+00 0.000000e+00
 0.000000e+00 0.000000e+00 0.000000e+00
 0.000000e+00 0.000000e+00 0.000000e+00
 0.000000e+00 0.000000e+00 0.000000e+00
 0.000000e+00 0.000000e+00 0.000000e+00
 0.000000e+00 0.000000e+00 0.000000e+00
 0.000000e+00 0.000000e+00 0.000000e+00
 0.000000e+00 0.000000e+00 0.000000e+00
 0.000000e+00 0.000000e+00 0.000000e+00
 0.000000e+00 0.000000e+00 0.000000e+00
 0.000000e+00 0.000000e+00 0.000000e+00
 0.000000e+00 0.000000e+00 0.000000e+00
 0.000000e+00 0.000000e+00 0.000000e+00
 0.000000e+00 0.000000e+00 0.000000e+00
 0.000000e+00 0.000000e+00 0.000000e+00
 0.000000e+00 0.000000e+00 0.000000e+00
 0.000000e+00 0.000000e+00 0.000000e+00
 0.000000e+00 0.000000e+00 0.000000e+00
 0.000000e+00 0.000000e+00 0.000000e+00
 0.000000e+00 0.000000e+00 0.000000e+00
 0.000000e+00 0.000000e+00 0.000000e+00
 0.000000e+00 0.000000e+00 0.000000e+00
 0.000000e+00 0.000000e+00 0.000000e+00
 0.000000e+00 0.000000e+00 0.000000e+00
 6.526217e-04 4.686566e-02 0.000000e+00
 1.460567e-03 -5.221233e-02 0.000000e+00
 1.500936e-03 -5.690269e-02 0.000000e+00
 7.442687e-04 4.157081e-02 0.000000e+00
 -3.589960e-02 8.649143e-03 0.000000e+00
 6.124287e-02 1.893323e-02 0.000000e+00
 4.946116e-02 2.054166e-02 0.000000e+00
 -5.432194e-02 1.051388e-02 0.000000e+00
 2.411951e-02 -6.515549e-02 0.000000e+00
 -8.603110e-04 -7.058638e-02 0.000000e+00
 7.398964e-02 1.375917e-02 0.000000e+00
 -1.090839e-02 1.063759e-02 0.000000e+00
 1.381627e-04 7.270588e-02 0.000000e+00
 -5.966626e-02 4.755961e-03 0.000000e+00
 -7.986787e-02 3.337543e-03 0.000000e+00
 1.425328e-04 7.018537e-02 0.000000e+00
 8.686470e-04 -4.060839e-02 0.000000e+00
 1.561394e-02 -3.220273e-02 0.000000e+00
 7.845968e-02 3.009389e-02 0.000000e+00
 -9.477580e-04 -5.310806e-02 0.000000e+00
 -1.820809e-02 7.896907e-03 0.000000e+00
 1.192549e-02 -1.737771e-02 0.000000e+00
 5.811505e-02 -1.704002e-03 0.000000e+00
 -1.389868e-03 2.072568e-02 0.000000e+00
 5.734769e-05 -1.789638e-02 0.000000e+00
 -8.725080e-03 -3.706201e-02 0.000000e+00
 -5.374382e-03 1.102327e-02 0.000000e+00
 3.602749e-02 1.672534e-02 0.000000e+00
 -4.602636e-02 2.326558e-02 0.000000e+00
 -2.181925e-03 2.512759e-02 0.000000e+00
 -2.666001e-03 1.026695e-02 0.000000e+00
 3.155386e-02 1.721858e-02 0.000000e+00
 1.100834e-02 2.262110e-02 0.000000e+00
 -1.146307e-01 9.876392e-03 0.000000e+00
 -2.988787e-02 -1.698759e-03 0.000000e+00
 6.819402e-02 -2.769507e-02 0.000000e+00
 -4.028919e-04 6.251857e-02 0.000000e+00
 -6.943608e-04 -6.593433e-02 0.000000e+00
 -1.349366e-02 3.011444e-02 0.000000e+00
 -6.381439e-04 6.187923e-02 0.000000e+00
 -1.131607e-02 1.879978e-03 0.000000e+00
 -1.912965e-03 -5.842894e-02 0.000000e+00
 1.516152e-02 8.402926e-03 0.000000e+00
 4.303264e-04 -3.545655e-03 0.000000e+00
 -4.631271e-03 3.940179e-02 0.000000e+00
 3.504996e-04 -6.821270e-02 0.000000e+00
 1.904771e-04 -7.329394e-02 0.000000e+00
 -3.041094e-03 2.837682e-02 0.000000e+00
 7.382909e-03 -5.582792e-02 0.000000e+00
 -9.738479e-03 4.152988e-02 0.000000e+00
 -2.865497e-02 1.482628e-02 0.000000e+00
 8.699995e-02 -9.530877e-03 0.000000e+00
 4.645081e-02 -5.290226e-02 0.000000e+00
 -4.122714e-03 -2.965545e-02 0.000000e+00
 -1.108722e-03 -6.918826e-02 0.000000e+00
 6.750498e-02 2.948278e-02 0.000000e+00
 7.345648e-02 2.404063e-02 0.000000e+00
 -4.444030e-02 6.557175e-03 0.000000e+00
 -8.763393e-02 1.432391e-02 0.000000e+00
 8.393499e-03 -3.028637e-02 0.000000e+00
 -1.387440e-02 6.466777e-02 0.000000e+00
 -2.960776e-02 1.046397e-02 0.000000e+00
 -1.410965e-03 2.922599e-02 0.000000e+00
 -3.409234e-03 6.980380e-02 0.000000e+00
 -2.887974e-02 -1.882872e-03 0.000000e+00
 -1.589844e-03 5.790677e-02 0.000000e+00
 -1.404043e-03 -1.869748e-02 0.000000e+00
 3.738968e-02 1.962654e-02 0.000000e+00
 3.966727e-04 7.900953e-04 0.000000e+00
 1.083850e-05 6.629848e-02 0.000000e+00
 -9.475875e-04 -1.652219e-02 0.000000e+00
 3.757033e-03 -7.719168e-02 0.000000e+00
 -1.162532e-03 -1.962753e-02 0.000000e+00
 -5.560656e-02 -3.154452e-03 0.000000e+00
 -1.335170e-01 1.021565e-02 0.000000e+00
 3.295841e-02 -7.740269e-03 0.000000e+00
 1.569867e-02 2.925015e-02 0.000000e+00
 8.627987e-02 8.157491e-03 0.000000e+00
 3.069173e-02 -6.779389e-02 0.000000e+00
 8.607730e-02 2.045030e-02 0.000000e+00
 -5.137705e-03 5.564181e-02 0.000000e+00
 -1.207388e-01 8.208989e-03 0.000000e+00
 -8.715522e-04 -2.987701e-02 0.000000e+00
 -1.911741e-02 7.559119e-03 0.000000e+00
 -7.299556e-04 -4.486985e-02 0.000000e+00
 -1.480221e-03 -1.386463e-02 0.000000e+00
 -8.277572e-04 7.260208e-02 0.000000e+00
 -8.601748e-02 7.938199e-03 0.000000e+00
 -1.495799e-03 7.256756e-02 0.000000e+00
 -2.543013e-03 6.480194e-02 0.000000e+00
 -1.941061e-03 6.787058e-02 0.000000e+00
 -1.647425e-03 -3.523463e-02 0.000000e+00
 -1.856783e-03 -5.085987e-02 0.000000e+00
 2.450275e-02 2.313438e-02 0.000000e+00
 -1.285809e-03 7.028800e-02 0.000000e+00
 -1.091046e-03 -5.065183e-02 0.000000e+00
 -1.964925e-02 -3.288820e-03 0.000000e+00
 -5.479586e-04 -1.366388e-02 0.000000e+00
 -3.392195e-02 8.545488e-03 0.000000e+00
 1.796134e-02 -7.987312e-02 0.000000e+00
 -3.203475e-02 7.107814e-03 0.000000e+00
 5.952676e-02 -5.002220e-02 0.000000e+00
 8.081263e-02 2.669248e-02 0.000000e+00
 -9.156033e-02 3.488690e-03 0.000000e+00
 6.834835e-02 -3.061515e-02 0.000000e+00
 -5.678498e-02 1.540664e-03 0.000000e+00
 -6.100011e-02 1.906241e-03 0.000000e+00
 0.000000e+00 0.000000e+00 0.000000e+00
 -1.427232e-01 8.820340e-03 0.000000e+00
 -1.457975e-01 2.959869e-02 0.000000e+00
 0.000000e+00 0.000000e+00 0.000000e+00
 -4.285632e-03 1.050357e-02 0.000000e+00
 -2.604861e-03 2.595163e-03 0.000000e+00
 0.000000e+00 0.000000e+00 0.000000e+00
 -9.656574e-02 1.256069e-02 0.000000e+00
 -1.146488e-01 5.691901e-02 0.000000e+00
 -7.415150e-06 6.260514e-02 0.000000e+00
 1.317006e-04 6.289105e-02 0.000000e+00
 0.000000e+00 0.000000e+00 0.000000e+00
 3.878570e-04 6.874848e-02 0.000000e+00
 1.000432e-04 5.253097e-02 0.000000e+00
 2.905617e-04 7.402803e-02 0.000000e+00
 -1.548312e-05 5.245217e-02 0.000000e+00
 0.000000e+00 0.000000e+00 0.000000e+00
 9.834161e-05 7.360792e-02 0.000000e+00
 -8.204750e-05 7.059664e-02 0.000000e+00
 -2.113730e-02 1.220377e-02 0.000000e+00
 -2.001113e-02 4.867853e-03 0.000000e+00
 -1.040189e-02 4.112086e-03 0.000000e+00
 -3.270192e-04 6.960678e-02 0.000000e+00
 -2.037652e-04 7.007475e-02 0.000000e+00
 0.000000e+00 0.000000e+00 0.000000e+00
 -2.743548e-02 3.432138e-03 0.000000e+00
 0.000000e+00 0.000000e+00 0.000000e+00
 0.000000e+00 0.000000e+00 0.000000e+00
 -2.975737e-02 -2.725995e-03 0.000000e+00
 -2.782261e-02 1.205832e-04 0.000000e+00
 -3.286291e-02 9.704395e-05 0.000000e+00
 -7.894921e-04 6.908342e-02 0.000000e+00
 -3.022840e-04 6.061839e-02 0.000000e+00
 -4.165795e-04 5.976072e-02 0.000000e+00
 0.000000e+00 0.000000e+00 0.000000e+00
 -2.236186e-02 2.025123e-02 0.000000e+00
 -1.340883e-02 2.082276e-02 0.000000e+00
 -3.318920e-02 1.749708e-03 0.000000e+00
 0.000000e+00 0.000000e+00 0.000000e+00
 -2.587405e-02 -1.832901e-04 0.000000e+00
 0.000000e+00 0.000000e+00 0.000000e+00
 -2.256210e-02 1.048184e-04 0.000000e+00
 -2.444686e-02 -6.386754e-04 0.000000e+00
 0.000000e+00 0.000000e+00 0.000000e+00
 4.208043e-02 -1.361303e-02 0.000000e+00
 9.309694e-03 -9.889955e-03 0.000000e+00
 4.242472e-02 -2.520168e-02 0.000000e+00
 -2.650088e-02 1.266822e-03 0.000000e+00
 -2.465273e-02 7.828971e-04 0.000000e+00
 0.000000e+00 0.000000e+00 0.000000e+00
 1.705346e-03 4.545882e-03 0.000000e+00
 -2.476851e-02 2.913369e-03 0.000000e+00
 -8.651739e-02 5.234229e-03 0.000000e+00
 -8.153352e-02 2.502143e-03 0.000000e+00
 -5.773913e-02 1.072623e-03 0.000000e+00
 -1.498347e-03 6.756041e-02 0.000000e+00
 -4.973467e-04 5.538351e-02 0.000000e+00
 -7.924997e-04 6.996025e-02 0.000000e+00
 -5.875609e-04 5.409658e-02 0.000000e+00
 0.000000e+00 0.000000e+00 0.000000e+00
 1.393893e-02 -7.398917e-02 0.000000e+00
 2.333814e-02 -7.513051e-02 0.000000e+00
 1.493815e-02 -6.445755e-02 0.000000e+00
 -5.391139e-03 8.291211e-02 0.000000e+00
 -3.425585e-02 9.681282e-02 0.000000e+00
 0.000000e+00 0.000000e+00 0.000000e+00
 -6.509965e-03 6.829341e-02 0.000000e+00
 -1.864360e-03 7.385512e-02 0.000000e+00
 -2.184033e-03 7.139071e-02 0.000000e+00
 -7.237070e-04 6.521287e-02 0.000000e+00
 -1.155725e-03 7.051861e-02 0.000000e+00
 -5.392337e-04 6.431224e-02 0.000000e+00
 0.000000e+00 0.000000e+00 0.000000e+00
 9.254427e-04 -3.695099e-02 0.000000e+00
 6.053815e-04 1.457069e-02 0.000000e+00
 1.117556e-03 -7.746361e-03 0.000000e+00
 -9.397018e-02 5.634902e-03 0.000000e+00
 -6.045239e-02 1.045039e-03 0.000000e+00
 -7.626974e-02 6.854547e-03 0.000000e+00
 -5.423656e-02 1.609989e-03 0.000000e+00
 -7.811389e-02 4.506961e-03 0.000000e+00
 -1.916224e-03 8.407843e-03 0.000000e+00
 -3.870966e-02 2.624535e-03 0.000000e+00
 -2.950572e-02 3.720973e-03 0.000000e+00
 -1.082219e-01 1.147092e-02 0.000000e+00
 -8.999544e-02 2.682299e-03 0.000000e+00
 -1.027993e-01 4.867921e-03 0.000000e+00
 -2.547379e-02 7.484345e-03 0.000000e+00
 -3.966738e-02 2.355995e-03 0.000000e+00
 0.000000e+00 0.000000e+00 0.000000e+00
 -9.681850e-02 2.782944e-03 0.000000e+00
 0.000000e+00 0.000000e+00 0.000000e+00
 -9.291990e-04 5.379838e-02 0.000000e+00
 -7.630464e-04 5.548563e-02 0.000000e+00
 0.000000e+00 0.000000e+00 0.000000e+00
 -2.870030e-03 5.456223e-02 0.000000e+00
 -2.428073e-03 5.427005e-02 0.000000e+00
 -2.527702e-03 2.663209e-02 0.000000e+00
 -1.108014e-04 6.735578e-02 0.000000e+00
 -3.245925e-04 6.826958e-02 0.000000e+00
 0.000000e+00 0.000000e+00 0.000000e+00
 -5.233846e-03 5.108629e-02 0.000000e+00
 -2.194275e-03 4.978962e-02 0.000000e+00
 -3.170725e-03 6.094601e-02 0.000000e+00
 6.571580e-02 2.195381e-02 0.000000e+00
 7.091088e-02 2.104029e-02 0.000000e+00
 4.773852e-02 1.785500e-02 0.000000e+00
 -1.220603e-01 4.131993e-03 0.000000e+00
 -1.138546e-01 3.838857e-03 0.000000e+00
 0.000000e+00 0.000000e+00 0.000000e+00
 -2.496530e-03 4.570532e-02 0.000000e+00
 0.000000e+00 0.000000e+00 0.000000e+00
 -4.925883e-03 4.087542e-02 0.000000e+00
 -4.128864e-03 4.697667e-02 0.000000e+00
 0.000000e+00 0.000000e+00 0.000000e+00
 1.132399e-03 -6.370639e-02 0.000000e+00
 1.163303e-03 -6.843502e-02 0.000000e+00
 1.605989e-03 -7.025587e-02 0.000000e+00
 7.206628e-04 2.158881e-02 0.000000e+00
 1.079397e-03 -3.258660e-02 0.000000e+00
 1.180315e-03 -1.464097e-02 0.000000e+00
 -5.123191e-02 6.746234e-03 0.000000e+00
 -6.983507e-02 3.593555e-03 0.000000e+00
 -5.502867e-02 1.931697e-03 0.000000e+00
 -5.024588e-02 2.190089e-03 0.000000e+00
 0.000000e+00 0.000000e+00 0.000000e+00
 8.737804e-02 2.582655e-02 0.000000e+00
 8.990611e-02 1.823526e-02 0.000000e+00
 7.079314e-02 2.353644e-02 0.000000e+00
 6.526250e-02 2.208703e-02 0.000000e+00
 7.146649e-02 2.121202e-02 0.000000e+00
 2.735246e-04 4.214400e-02 0.000000e+00
 4.761810e-04 5.903074e-02 0.000000e+00
 3.172984e-04 7.271099e-02 0.000000e+00
 2.787818e-02 -4.474591e-02 0.000000e+00
 1.939226e-02 -4.811821e-02 0.000000e+00
 3.528457e-02 -6.181093e-02 0.000000e+00
 3.815598e-03 -2.915621e-02 0.000000e+00
 1.091384e-02 -4.629849e-02 0.000000e+00
 1.024253e-04 -6.404988e-02 0.000000e+00
 -6.287730e-04 -6.240472e-02 0.000000e+00
 -5.140144e-04 -7.157394e-02 0.000000e+00
 -1.836584e-02 1.065939e-02 0.000000e+00
 -2.980666e-03 1.214932e-02 0.000000e+00
 -7.980581e-04 1.895380e-02 0.000000e+00
 5.247932e-02 1.905707e-02 0.000000e+00
 3.227746e-02 1.445255e-02 0.000000e+00
 -2.151667e-02 1.568987e-02 0.000000e+00
 3.345364e-02 2.088699e-02 0.000000e+00
 1.429078e-03 1.671313e-02 0.000000e+00
 -1.414136e-03 -6.263196e-02 0.000000e+00
 -1.288624e-03 -6.757512e-02 0.000000e+00
 -1.004141e-03 -7.082748e-02 0.000000e+00
 -1.253389e-04 3.460172e-02 0.000000e+00
 -9.585056e-05 6.693940e-02 0.000000e+00
 5.558063e-02 -1.986874e-02 0.000000e+00
 4.624611e-02 -3.410838e-02 0.000000e+00
 2.211198e-02 -1.998538e-02 0.000000e+00
 -5.543859e-03 2.066214e-02 0.000000e+00
 -4.767129e-03 2.999918e-02 0.000000e+00
 0.000000e+00 0.000000e+00 0.000000e+00
 2.070584e-02 1.429899e-02 0.000000e+00
 -9.525108e-03 1.426640e-02 0.000000e+00
 -8.907204e-03 -3.417873e-03 0.000000e+00
 -1.415736e-02 2.319356e-02 0.000000e+00
 7.071355e-02 -1.067042e-02 0.000000e+00
 5.549370e-02 3.527890e-03 0.000000e+00
 8.413383e-02 2.274945e-03 0.000000e+00
 8.112344e-02 -2.059915e-02 0.000000e+00
 8.226873e-02 -5.736587e-03 0.000000e+00
 6.832662e-02 -1.324650e-02 0.000000e+00
 4.998378e-05 2.728812e-02 0.000000e+00
 3.806820e-04 5.756239e-02 0.000000e+00
 -1.033711e-04 -4.933548e-02 0.000000e+00
 -7.793127e-04 -3.571539e-02 0.000000e+00
 -3.962895e-04 -6.239727e-02 0.000000e+00
 -1.231171e-03 -3.618256e-02 0.000000e+00
 -9.192408e-04 -6.392262e-02 0.000000e+00
 -8.642766e-04 -5.408629e-02 0.000000e+00
 -3.884678e-03 3.438825e-02 0.000000e+00
 -1.675347e-03 -8.498215e-03 0.000000e+00
 -2.400719e-03 -1.299393e-04 0.000000e+00
 1.116662e-03 -7.599929e-02 0.000000e+00
 4.575588e-03 -7.187793e-02 0.000000e+00
 1.337312e-03 -6.363183e-02 0.000000e+00
 -5.271911e-02 1.103224e-02 0.000000e+00
 -7.354005e-02 8.115212e-02 0.000000e+00
 -5.269953e-02 5.498341e-03 0.000000e+00
 0.000000e+00 0.000000e+00 0.000000e+00
 -4.401086e-02 1.589951e-02 0.000000e+00
 -6.995246e-02 9.104769e-03 0.000000e+00
 3.401814e-02 1.890097e-02 0.000000e+00
 7.193908e-02 2.629931e-02 0.000000e+00
 6.842834e-02 2.462999e-02 0.000000e+00
 -2.014579e-03 -1.098925e-03 0.000000e+00
 -6.295013e-05 -3.579144e-02 0.000000e+00
 -1.075792e-03 -3.531678e-02 0.000000e+00
 -1.288473e-03 -1.909903e-02 0.000000e+00
 -1.181811e-03 1.750590e-03 0.000000e+00
 -2.028455e-03 -6.383010e-02 0.000000e+00
 -6.307187e-03 -3.168928e-02 0.000000e+00
 -2.234425e-03 -6.675922e-02 0.000000e+00
 5.426768e-02 2.495152e-02 0.000000e+00
 7.563626e-02 2.747084e-02 0.000000e+00
 5.547223e-02 2.872538e-02 0.000000e+00
 5.912772e-02 1.440781e-02 0.000000e+00
 6.719214e-02 1.976498e-02 0.000000e+00
 2.605043e-02 1.267671e-02 0.000000e+00
 4.374645e-02 3.103823e-02 0.000000e+00
 5.897910e-02 3.140811e-02 0.000000e+00
 7.574726e-02 3.164708e-02 0.000000e+00
 5.605620e-02 -5.424126e-02 0.000000e+00
 6.940061e-02 -3.959691e-02 0.000000e+00
 5.921247e-02 -4.178890e-02 0.000000e+00
 -3.744776e-02 -8.080984e-04 0.000000e+00
 -4.595459e-02 -6.366756e-03 0.000000e+00
 -1.020299e-02 -1.269107e-02 0.000000e+00
 1.308613e-02 -2.631486e-02 0.000000e+00
 -1.300112e-02 -9.680868e-03 0.000000e+00
 -2.483539e-02 -2.618695e-03 0.000000e+00
 -2.757920e-02 -2.272500e-04 0.000000e+00
 4.474730e-03 -3.820724e-02 0.000000e+00
 -3.648367e-03 -6.914792e-03 0.000000e+00
 1.953246e-04 -2.484361e-02 0.000000e+00
 8.992168e-02 4.252502e-04 0.000000e+00
 7.486283e-02 2.322882e-03 0.000000e+00
 -2.619043e-04 -7.035512e-02 0.000000e+00
 -7.531234e-04 -6.943162e-02 0.000000e+00
 -1.700960e-03 -4.759237e-03 0.000000e+00
 -1.298763e-03 -4.485559e-02 0.000000e+00
 -1.272473e-03 -1.741967e-02 0.000000e+00
 -1.742556e-03 2.131316e-02 0.000000e+00
 -1.700355e-03 2.988224e-03 0.000000e+00
 -1.997580e-03 4.248633e-02 0.000000e+00
 2.986757e-04 -6.136535e-02 0.000000e+00
 -3.381199e-02 4.632923e-03 0.000000e+00
 -2.671597e-02 1.280741e-02 0.000000e+00
 -2.332822e-02 -9.186228e-05 0.000000e+00
 -1.163629e-02 3.811621e-02 0.000000e+00
 -1.960581e-02 2.376797e-02 0.000000e+00
 -9.016619e-04 2.507742e-02 0.000000e+00
 -1.081751e-03 4.318068e-02 0.000000e+00
 -7.979143e-04 -4.729273e-02 0.000000e+00
 -5.431553e-04 -1.723931e-02 0.000000e+00
 -3.740485e-04 -4.774310e-02 0.000000e+00
 8.703356e-02 1.491560e-02 0.000000e+00
 5.895460e-02 1.025897e-02 0.000000e+00
 -3.810337e-03 -3.956517e-04 0.000000e+00
 2.956552e-02 -3.889954e-03 0.000000e+00
 2.385813e-02 1.238156e-03 0.000000e+00
 -8.121784e-03 1.538912e-02 0.000000e+00
 -1.465375e-02 1.248116e-02 0.000000e+00
 -2.375094e-02 -2.347488e-02 0.000000e+00
 -4.538033e-02 2.267552e-03 0.000000e+00
 0.000000e+00 0.000000e+00 0.000000e+00
 4.071304e-02 5.746267e-03 0.000000e+00
 2.546343e-03 -3.741237e-02 0.000000e+00
 9.901400e-05 -2.797930e-02 0.000000e+00
 3.367952e-03 -5.019283e-02 0.000000e+00
 -7.064321e-03 4.935796e-02 0.000000e+00
 -6.704355e-03 3.911161e-02 0.000000e+00
 -8.625656e-03 3.101685e-02 0.000000e+00
 -1.031315e-03 7.381792e-03 0.000000e+00
 -5.604236e-04 2.739545e-02 0.000000e+00
 -8.706155e-04 4.757336e-02 0.000000e+00
 2.391997e-02 -7.587180e-02 0.000000e+00
 1.174543e-02 -7.492727e-02 0.000000e+00
 1.286110e-02 -6.563554e-02 0.000000e+00
 -1.173224e-03 -3.275591e-02 0.000000e+00
 -1.540867e-03 -1.245795e-02 0.000000e+00
 -1.397499e-03 4.920925e-02 0.000000e+00
 -1.082442e-03 5.135414e-02 0.000000e+00
 0.000000e+00 0.000000e+00 0.000000e+00
 -7.821309e-04 -3.778538e-02 0.000000e+00
 3.449623e-04 -5.985853e-02 0.000000e+00
 9.620673e-03 -7.995337e-02 0.000000e+00
 9.391419e-03 -7.576481e-02 0.000000e+00
 -4.070463e-03 1.316976e-02 0.000000e+00
 -3.431070e-03 -8.047211e-04 0.000000e+00
 -5.127869e-03 2.452389e-02 0.000000e+00
 6.365499e-02 2.390070e-02 0.000000e+00
 8.198396e-02 2.952822e-02 0.000000e+00
 -9.252211e-02 1.484403e-02 0.000000e+00
 -9.759056e-02 1.668482e-02 0.000000e+00
 -3.920123e-02 2.067158e-02 0.000000e+00
 6.433197e-02 -4.081324e-02 0.000000e+00
 7.576882e-02 -3.153400e-02 0.000000e+00
 3.235855e-03 5.636968e-03 0.000000e+00
 -7.540090e-02 9.070674e-03 0.000000e+00
 3.553050e-02 -3.470737e-02 0.000000e+00
 -3.917644e-04 -4.700837e-02 0.000000e+00
 -2.285586e-02 -3.117177e-02 0.000000e+00
 0.000000e+00 0.000000e+00 0.000000e+00
 -1.817849e-03 -6.339310e-02 0.000000e+00
 -2.547223e-03 -4.107160e-02 0.000000e+00
 -2.413670e-03 -2.407309e-02 0.000000e+00
 -3.348261e-03 -9.913488e-03 0.000000e+00
 -9.336679e-04 -7.032403e-02 0.000000e+00
 -1.090236e-03 -6.324677e-02 0.000000e+00
 -3.880058e-02 2.308879e-02 0.000000e+00
 -1.345494e-02 2.712747e-02 0.000000e+00
 -7.100169e-02 2.015980e-02 0.000000e+00
 4.898765e-02 2.694375e-02 0.000000e+00
 -1.018239e-02 2.461918e-02 0.000000e+00
 1.979540e-02 2.799146e-02 0.000000e+00
 -5.587106e-03 1.293570e-02 0.000000e+00
 -8.534552e-03 1.233082e-02 0.000000e+00
 -1.284277e-01 9.446650e-03 0.000000e+00
 -9.844532e-02 1.654064e-02 0.000000e+00
 1.306507e-02 2.660889e-02 0.000000e+00
 -8.297854e-03 -1.209369e-02 0.000000e+00
 -2.891110e-02 4.597281e-02 0.000000e+00
 -1.828492e-02 -1.376980e-02 0.000000e+00
 -1.568612e-03 5.512072e-02 0.000000e+00
 -2.317065e-03 4.790701e-02 0.000000e+00
 -1.997440e-03 1.998899e-02 0.000000e+00
 -8.096603e-04 7.304416e-02 0.000000e+00
 -4.925377e-03 2.307910e-02 0.000000e+00
 -3.341246e-03 4.302110e-02 0.000000e+00
 -1.159875e-02 -7.916015e-03 0.000000e+00
 -9.951114e-03 -3.846096e-03 0.000000e+00
 -3.646725e-03 -9.249268e-03 0.000000e+00
 -1.602172e-03 6.930803e-02 0.000000e+00
 -2.037531e-03 5.660499e-02 0.000000e+00
 -1.186857e-03 6.727792e-02 0.000000e+00
 -1.234354e-03 5.425588e-02 0.000000e+00
 -1.555653e-03 4.097592e-02 0.000000e+00
 -1.002630e-03 -6.787526e-02 0.000000e+00
 -9.535334e-04 -5.959963e-02 0.000000e+00
 -1.498918e-03 3.760985e-04 0.000000e+00
 8.377750e-02 2.436392e-02 0.000000e+00
 6.406701e-02 2.207473e-02 0.000000e+00
 1.134325e-03 1.341932e-02 0.000000e+00
 1.735135e-04 1.216080e-02 0.000000e+00
 3.693542e-02 1.866416e-02 0.000000e+00
 -8.602366e-05 -6.551524e-03 0.000000e+00
 4.363701e-04 -4.438821e-02 0.000000e+00
 -3.088441e-04 6.423563e-02 0.000000e+00
 -4.525202e-04 2.435816e-02 0.000000e+00
 -3.768968e-03 -6.228610e-02 0.000000e+00
 -8.950740e-03 -5.067443e-02 0.000000e+00
 -2.102387e-02 -3.047289e-02 0.000000e+00
 1.496126e-03 -6.972760e-02 0.000000e+00
 -1.315778e-01 1.056254e-02 0.000000e+00
 7.942404e-02 -1.976953e-02 0.000000e+00
 -3.876661e-02 1.985348e-02 0.000000e+00
 9.095097e-02 1.047474e-02 0.000000e+00