<?xml version="1.0"?>
<VTKFile type="UnstructuredGrid"  version="0.1"  >
<UnstructuredGrid>
<Piece  NumberOfPoints="505" NumberOfCells="928">
<Points>
<DataArray  type="Float32"  NumberOfComponents="3"  format="ascii">
0 0 0
1 0 0
0 1 0
1 0.5 0
0.5 0.5 0
0.5 1 0
0.1 0 0
0.2 0 0
0.3 0 0
0.4 0 0
0.5 0 0
0.6 0 0
0.7 0 0
0.8 0 0
0.9 0 0
0 0.9 0
0 0.8 0
0 0.7 0
0 0.6 0
0 0.5 0
0 0.4 0
0 0.3 0
0 0.2 0
0 0.1 0
0.9 0.5 0
0.8 0.5 0
0.7 0.5 0
0.6 0.5 0
0.5 0.6 0
0.5 0.7 0
0.5 0.8 0
0.5 0.9 0
0.1 1 0
0.2 1 0
0.3 1 0
0.4 1 0
1 0.1 0
1 0.2 0
1 0.3 0
1 0.4 0
0.300178 0.296564 0
0.247566 0.664879 0
0.639694 0.259804 0
0.06564 0.06472 0
0.04439 0.954144 0
0.932418 0.064715 0
0.951013 0.456419 0
0.437622 0.939659 0
0.195334 0.464441 0
0.483382 0.329596 0
0.834786 0.236295 0
0.307228 0.81139 0
0.178229 0.173372 0
0.366998 0.134199 0
0.547485 0.14214 0
0.124832 0.74927 0
0.160163 0.896658 0
0.342556 0.535243 0
0.147651 0.342018 0
0.729803 0.127878 0
0.725981 0.357775 0
0.121369 0.600441 0
0.372954 0.70814 0
0.908503 0.151525 0
0.89851 0.333305 0
0.556275 0.400898 0
0.259184 0.092178 0
0.46329 0.194362 0
0.423773 0.869712 0
0.22823 0.818162 0
0.081292 0.144905 0
0.082979 0.831935 0
0.549999 0.065419 0
0.371537 0.407588 0
0.642628 0.097865 0
0.459835 0.086595 0
0.108565 0.418567 0
0.273082 0.902112 0
0.256598 0.556659 0
0.11951 0.509541 0
0.234147 0.370527 0
0.097453 0.253261 0
0.638438 0.342389 0
0.554656 0.224779 0
0.373432 0.237603 0
0.339663 0.62579 0
0.27079 0.747786 0
0.733958 0.266592 0
0.928527 0.244458 0
0.853116 0.071497 0
0.818426 0.404817 0
0.280194 0.200604 0
0.417859 0.565185 0
0.147241 0.079056 0
0.389149 0.789957 0
0.42808 0.654642 0
0.343469 0.059202 0
0.086765 0.684153 0
0.162043 0.675011 0
0.809252 0.14201 0
0.364337 0.928607 0
0.077532 0.916553 0
0.159064 0.807906 0
0.302124 0.454032 0
0.205909 0.272176 0
0.449664 0.407415 0
0.66041 0.423241 0
0.562201 0.303789 0
0.802658 0.320211 0
0.614551 0.182931 0
0.390944 0.331035 0
0.687136 0.18846 0
0.070577 0.342498 0
0.741087 0.437361 0
0.176989 0.547528 0
0.710251 0.07409 0
0.192845 0.608574 0
0.171114 0.398277 0
0.058959 0.753084 0
0.904 0.425508 0
0.438039 0.730373 0
0.057223 0.475897 0
0.058502 0.552106 0
0.330493 0.750997 0
0.312295 0.699131 0
0.684882 0.307111 0
0.053312 0.627311 0
0.198798 0.743695 0
0.392326 0.069953 0
0.351519 0.860283 0
0.397134 0.477694 0
0.319385 0.371198 0
0.767351 0.069505 0
0.441954 0.271171 0
0.759504 0.192785 0
0.855661 0.457701 0
0.500847 0.264652 0
0.916209 0.0323575 0
0.966209 0.0323575 0
0.95 0 0
0.578137 0.450449 0
0.528137 0.450449 0
0.55 0.5 0
0.03282 0.08236 0
0.03282 0.03236 0
0 0.05 0
0.502969 0.404157 0
0.474832 0.453708 0
0.468811 0.91983 0
0.468811 0.96983 0
0.5 0.95 0
0.072195 0.977072 0
0.022195 0.977072 0
0.05 1 0
0.022195 0.927072 0
0 0.95 0
0.060961 0.935348 0
0.038766 0.908276 0
0.106441 0.071888 0
0.123621 0.039528 0
0.08282 0.03236 0
0.0414895 0.815967 0
0.0414895 0.865968 0
0 0.85 0
0.173621 0.039528 0
0.15 0 0
0.05 0 0
0.301327 0.07569 0
0.321735 0.029601 0
0.279592 0.046089 0
0.070969 0.792509 0
0.0294795 0.776542 0
0.0294795 0.726542 0
0 0.75 0
0.114267 0.111981 0
0.073466 0.104813 0
0.229592 0.046089 0
0.25 0 0
0.371735 0.029601 0
0.35 0 0
0.479917 0.0432975 0
0.429918 0.0432975 0
0.45 0 0
0.461562 0.140479 0
0.413416 0.110397 0
0.415144 0.16428 0
0.574999 0.0327095 0
0.525 0.0327095 0
0.55 0 0
0.596313 0.081642 0
0.621314 0.0489325 0
0.927507 0.440964 0
0.902 0.462754 0
0.925507 0.47821 0
0.0700385 0.655732 0
0.026656 0.663655 0
0.0433825 0.692076 0
0.026656 0.613655 0
0 0.65 0
0.276766 0.370862 0
0.309781 0.333881 0
0.267162 0.333545 0
0.458929 0.582593 0
0.458929 0.532593 0
0.5 0.55 0
0.422969 0.609913 0
0.46404 0.627321 0
0.43306 0.692508 0
0.46902 0.715186 0
0.46404 0.677321 0
0.46902 0.765186 0
0.5 0.75 0
0.180082 0.948329 0
0.130082 0.948329 0
0.15 1 0
0.87983 0.441605 0
0.87783 0.478851 0
0.975507 0.42821 0
0.975507 0.47821 0
1 0.45 0
0.676439 0.0859775 0
0.705125 0.037045 0
0.671314 0.0489325 0
0.779756 0.421089 0
0.770544 0.46868 0
0.809213 0.452408 0
0.738801 0.0717975 0
0.733675 0.0347525 0
0.95 0.5 0
0.720544 0.46868 0
0.75 0.5 0
0.029251 0.526053 0
0.029251 0.576053 0
0 0.55 0
0.089006 0.530824 0
0.0899355 0.576273 0
0.12044 0.554991 0
0.461886 0.884856 0
0.461886 0.834856 0
0.5 0.85 0
0.089571 0.380533 0
0.0352885 0.371249 0
0.0542825 0.409284 0
0.918515 0.197991 0
0.964263 0.222229 0
0.954252 0.175762 0
0.630205 0.46162 0
0.680205 0.46162 0
0.65 0.5 0
0.0352885 0.321249 0
0 0.35 0
0.0487265 0.226631 0
0.0487265 0.276631 0
0 0.25 0
0.286541 0.951056 0
0.236541 0.951056 0
0.25 1 0
0.382169 0.964303 0
0.332168 0.964303 0
0.35 1 0
0.966209 0.0823575 0
1 0.05 0
0.876558 0.0357485 0
0.826558 0.0357485 0
0.85 0 0
0.710547 0.227526 0
0.663415 0.224132 0
0.686826 0.263198 0
0.964263 0.272229 0
1 0.25 0
0.40098 0.934133 0
0.418811 0.96983 0
0.45 1 0
0.326813 0.219104 0
0.290186 0.248584 0
0.336805 0.267084 0
0.243052 0.23639 0
0.253043 0.28437 0
0.224721 0.582616 0
0.220205 0.636726 0
0.252082 0.610769 0
0.92046 0.10812 0
0.954252 0.125762 0
0.66166 0.32475 0
0.662288 0.283458 0
0.639066 0.301096 0
0.949255 0.366653 0
0.949255 0.316653 0
1 0.35 0
0.291542 0.723459 0
0.27993 0.682005 0
0.259178 0.706333 0
0.394055 0.89916 0
0.430698 0.904686 0
0.531524 0.28422 0
0.492115 0.297124 0
0.522791 0.316692 0
0.040646 0.122453 0
0.040646 0.172453 0
0 0.15 0
1 0.15 0
0.151681 0.262718 0
0.192069 0.222774 0
0.137841 0.213317 0
0.558428 0.264284 0
0.600947 0.281797 0
0.597175 0.242291 0
0.508973 0.20957 0
0.551071 0.183459 0
0.505387 0.168251 0
0.118847 0.906605 0
0.088766 0.958276 0
0.3123 0.881198 0
0.329373 0.835836 0
0.290155 0.856751 0
0.18042 0.709353 0
0.223182 0.704287 0
0.204805 0.669945 0
0.114037 0.464054 0
0.157422 0.486991 0
0.15195 0.441504 0
0.279361 0.505346 0
0.248729 0.459236 0
0.225966 0.51055 0
0.423399 0.442555 0
0.448567 0.488847 0
0.892767 0.068106 0
0.65 0 0
0.901255 0.379406 0
0.952 0.412754 0
0.858877 0.146767 0
0.822019 0.189153 0
0.871644 0.19391 0
0.14825 0.528535 0
0.186162 0.505985 0
0.178931 0.775801 0
0.161815 0.746482 0
0.141948 0.778588 0
0.29813 0.591225 0
0.34111 0.580516 0
0.299577 0.545951 0
0.913519 0.288882 0
0.881657 0.240376 0
0.866648 0.2848 0
0.664882 0.143162 0
0.708469 0.158169 0
0.686215 0.112871 0
0.768308 0.293401 0
0.818722 0.278253 0
0.784372 0.251443 0
0.407693 0.254387 0
0.452622 0.232766 0
0.418361 0.215983 0
0.559238 0.352343 0
0.519829 0.365247 0
0.269689 0.146391 0
0.323596 0.167402 0
0.313091 0.113188 0
0.367897 0.0645775 0
0.396163 0.0349765 0
0.220028 0.321352 0
0.17678 0.307097 0
0.190899 0.356272 0
0.584604 0.203855 0
0.581018 0.162535 0
0.250656 0.860137 0
0.267729 0.814776 0
0.359821 0.770477 0
0.31886 0.781193 0
0.348189 0.800674 0
0.124404 0.679582 0
0.141706 0.637726 0
0.104067 0.642297 0
0.216622 0.899385 0
0.203213 0.085617 0
0.162735 0.126214 0
0.218707 0.132775 0
0.0893725 0.199083 0
0.129761 0.159139 0
0.121022 0.819921 0
0.103905 0.790602 0
0.193647 0.813034 0
0.159614 0.852282 0
0.194196 0.85741 0
0.650843 0.185696 0
0.628589 0.140398 0
0.504917 0.076007 0
0.50366 0.114367 0
0.548742 0.103779 0
0.378761 0.595487 0
0.380208 0.550214 0
0.466523 0.368506 0
0.783675 0.0347525 0
0.75 0 0
0.595056 0.120002 0
0.20263 0.384402 0
0.183224 0.431359 0
0.214741 0.417484 0
0.084015 0.29788 0
0.109114 0.342258 0
0.122552 0.29764 0
0.370334 0.82512 0
0.387646 0.864998 0
0.406461 0.829835 0
0.355164 0.351116 0
0.345461 0.389393 0
0.38124 0.369312 0
0.177444 0.641792 0
0.157107 0.604507 0
0.0286115 0.437949 0
0.0286115 0.487949 0
0 0.45 0
0.184917 0.578051 0
0.216794 0.552094 0
0.310754 0.412615 0
0.268135 0.41228 0
0.13984 0.408422 0
0.159382 0.370147 0
0.128108 0.380293 0
0.784378 0.167398 0
0.797145 0.21454 0
0.649424 0.382815 0
0.693196 0.390508 0
0.682209 0.350082 0
0.471401 0.267911 0
0.482069 0.229507 0
0.600319 0.323089 0
0.597356 0.371644 0
0.370215 0.185901 0
0.420304 0.369225 0
0.410601 0.407502 0
0.5 0.65 0
0.293615 0.645334 0
0.325979 0.66246 0
0.342624 0.703635 0
0.356309 0.666965 0
0.24951 0.782974 0
0.289009 0.779588 0
0.810542 0.362514 0
0.76432 0.338993 0
0.772204 0.381296 0
0.70942 0.286852 0
0.705431 0.332443 0
0.729969 0.312184 0
0.831184 0.106754 0
0.88081 0.111511 0
0.700748 0.430301 0
0.733534 0.397568 0
0.850584 0.326758 0
0.229212 0.186988 0
0.407496 0.52144 0
0.369845 0.506468 0
0.413594 0.760165 0
0.405497 0.719256 0
0.381051 0.749049 0
0.444574 0.794979 0
0.383872 0.640216 0
0.400517 0.681391 0
0.355233 0.0967005 0
0.42608 0.078274 0
0.379662 0.102076 0
0.055907 0.589708 0
0.0873405 0.613876 0
0.072862 0.718619 0
0.0918955 0.751177 0
0.105798 0.716711 0
0.234794 0.74574 0
0.213514 0.780928 0
0.143437 0.712141 0
0.72332 0.190623 0
0.744653 0.160332 0
0.788301 0.105758 0
0.748577 0.0986915 0
0.769527 0.134944 0
0.357928 0.894445 0
0.318709 0.915359 0
0.0802555 0.874244 0
0.121571 0.864297 0
0.32234 0.494638 0
0.349629 0.465863 0
0.384335 0.442641 0
0.336831 0.43081 0
0.608343 0.412069 0
0.527752 0.244716 0
0.858468 0.369061 0
0.627123 0.221367 0
0.382188 0.284319 0
0.345561 0.3138 0
0.437163 0.330315 0
0.746731 0.229689 0
0.149179 0.573985 0
0.720027 0.100984 0
0.810234 0.070501 0
0.861213 0.415162 0
0.827831 0.478851 0
0.85 0.5 0
0.082894 0.447232 0
0.0883665 0.492719 0
0.0578625 0.514002 0
0.300642 0.749391 0
0.351723 0.729569 0
0.321394 0.725064 0
0.416449 0.301103 0
0.462668 0.300384 0
0.837044 0.431259 0
</DataArray>
</Points>
<Cells>
<DataArray  type="UInt32"  Name="connectivity"  format="ascii">
1 138 139 
14 137 139 
45 137 138 
137 138 139 
4 141 142 
27 140 142 
65 140 141 
140 141 142 
0 144 145 
23 143 145 
43 143 144 
143 144 145 
4 141 147 
65 141 146 
105 146 147 
141 146 147 
5 149 150 
31 148 150 
47 148 149 
148 149 150 
2 152 153 
32 151 153 
44 151 152 
151 152 153 
2 152 155 
15 154 155 
44 152 154 
152 154 155 
15 154 157 
44 154 156 
101 156 157 
154 156 157 
6 159 160 
43 158 160 
93 158 159 
158 159 160 
15 162 163 
16 161 163 
71 161 162 
161 162 163 
6 159 165 
7 164 165 
93 159 164 
159 164 165 
[...]
<PointData  Vectors="u"> 
<DataArray  type="Float32"  Name="u"  NumberOfComponents="3" format="ascii">
 0.000000e+00 0.000000e+00 0.000000e+00
 0.000000e+00 0.000000e+00 0.000000e+00
 0.000000e+00 0.000000e+00 0.000000e+00
 0.000000e+00 0.000000e+00 0.000000e+00
 0.000000e+00 0.000000e+00 0.000000e+00
 0.000000e+00 0.000000e+00 0.000000e+00
 0.000000e+00 0.000000e+00 0.000000e+00
 0.000000e+00 0.000000e+00 0.000000e+00
 0.000000e+00 0.000000e+00 0.000000e+00
 0.000000e+00 0.000000e+00 0.000000e+00
 0.000000e+00 0.000000e+00 0.000000e+00
 0.000000e+00 0.000000e+00 0.000000e+00
 0.000000e+00 0.000000e+00 0.000000e+00
 0.000000e+00 0.000000e+00 0.000000e+00
 0.000000e+00 0.000000e+00 0.000000e+00
 0.000000e+00 0.000000e+00 0.000000e+00
 0.000000e+00 0.000000e+00 0.000000e+00
 0.000000e+00 0.000000e+00 0.000000e+00
 0.000000e+00 0.000000e+00 0.000000e+00
 0.000000e+00 0.000000e+00 0.000000e+00
 0.000000e+00 0.000000e+00 0.000000e+00
 0.000000e+00 0.000000e+00 0.000000e+00
 0.000000e+00 0.000000e+00 0.000000e+00
 0.000000e+00 0.000000e+00 0.000000e+00
 0.000000e+00 0.000000e+00 0.000000e+00
 0.000000e+00 0.000000e+00 0.000000e+00
 0.000000e+00 0.000000e+00 0.000000e+00
 0.000000e+00 0.000000e+00 0.000000e+00
 0.000000e+00 0.000000e+00 0.000000e+00
 0.000000e+00 0.000000e+00 0.000000e+00
 0.000000e+00 0.000000e+00 0.000000e+00
 0.000000e+00 0.000000e+00 0.000000e+00
 7.228929e-05 1.034130e-01 0.000000e+00
 3.848045e-05 1.259278e-01 0.000000e+00
 1.263676e-04 1.229140e-01 0.000000e+00
 1.946809e-04 9.665962e-02 0.000000e+00
 -1.046646e-01 6.351669e-03 0.000000e+00
 -1.260466e-01 1.278334e-02 0.000000e+00
 -1.228207e-01 1.344954e-02 0.000000e+00
 -9.573948e-02 7.061147e-03 0.000000e+00
 -6.287487e-02 4.015120e-02 0.000000e+00
 -5.105605e-03 1.266841e-01 0.000000e+00
 -1.218823e-01 2.071303e-02 0.000000e+00
 -1.643225e-03 1.540393e-03 0.000000e+00
 7.743038e-05 4.702597e-02 0.000000e+00
 -6.939148e-02 2.950650e-03 0.000000e+00
 -4.082670e-02 2.060271e-03 0.000000e+00
 2.884243e-04 6.221248e-02 0.000000e+00
 -2.692286e-02 9.873422e-02 0.000000e+00
 -1.386025e-01 4.239284e-02 0.000000e+00
 -1.213027e-01 1.408205e-02 0.000000e+00
 1.614231e-03 1.237535e-01 0.000000e+00
 -3.291341e-02 2.613646e-02 0.000000e+00
 -5.882523e-02 6.474498e-03 0.000000e+00
 -8.095842e-02 9.804237e-03 0.000000e+00
 5.226642e-05 1.166826e-01 0.000000e+00
 4.552527e-04 1.253963e-01 0.000000e+00
 -4.118646e-02 1.337770e-01 0.000000e+00
 -2.124235e-02 6.932803e-02 0.000000e+00
 -9.707780e-02 8.441882e-03 0.000000e+00
 -1.379020e-01 1.238565e-02 0.000000e+00
 -4.278834e-03 1.098136e-01 0.000000e+00
 3.301619e-03 1.121146e-01 0.000000e+00
 -1.195930e-01 9.211493e-03 0.000000e+00
 -1.258340e-01 1.103881e-02 0.000000e+00
 -1.475757e-01 2.355470e-02 0.000000e+00
 -3.545090e-02 5.375727e-03 0.000000e+00
 -8.245915e-02 1.499644e-02 0.000000e+00
 8.700381e-04 7.602376e-02 0.000000e+00
 6.097299e-04 1.250324e-01 0.000000e+00
 -8.801182e-03 1.514478e-02 0.000000e+00
 4.559095e-04 9.028828e-02 0.000000e+00
 -4.230554e-02 2.148439e-03 0.000000e+00
 -1.060796e-01 9.280523e-02 0.000000e+00
 -7.297378e-02 5.627182e-03 0.000000e+00
 -4.933264e-02 2.763837e-03 0.000000e+00
 -1.046413e-02 7.978272e-02 0.000000e+00
 6.973620e-04 1.233515e-01 0.000000e+00
 -2.424706e-02 1.228599e-01 0.000000e+00
 -8.674263e-03 9.898050e-02 0.000000e+00
 -4.417918e-02 6.899202e-02 0.000000e+00
 -1.211990e-02 4.271244e-02 0.000000e+00
 -1.473013e-01 1.849858e-02 0.000000e+00
 -1.034931e-01 2.000120e-02 0.000000e+00
 -7.445667e-02 2.213866e-02 0.000000e+00
 -7.014160e-03 1.296305e-01 0.000000e+00
 3.808866e-04 1.254356e-01 0.000000e+00
 -1.248293e-01 1.748434e-02 0.000000e+00
 -1.230869e-01 1.331219e-02 0.000000e+00
 -7.086222e-02 2.694792e-03 0.000000e+00
 -1.065389e-01 5.439325e-03 0.000000e+00
 -5.391993e-02 2.016651e-02 0.000000e+00
 -1.430260e-02 8.936191e-02 0.000000e+00
 -1.449374e-02 6.626194e-03 0.000000e+00
 2.488212e-03 1.025472e-01 0.000000e+00
 3.313429e-03 6.619872e-02 0.000000e+00
 -2.750511e-02 9.222570e-04 0.000000e+00
 -2.763869e-04 9.277713e-02 0.000000e+00
 -2.788556e-03 1.239009e-01 0.000000e+00
 -1.095428e-01 8.798880e-03 0.000000e+00
 6.625626e-04 1.146983e-01 0.000000e+00
 2.730274e-04 8.465039e-02 0.000000e+00
 3.926184e-04 1.252623e-01 0.000000e+00
 -6.352246e-02 1.056096e-01 0.000000e+00
 -3.775071e-02 4.584882e-02 0.000000e+00
 -1.436665e-01 7.634119e-02 0.000000e+00
 -1.070903e-01 5.975168e-03 0.000000e+00
 -1.371370e-01 2.705317e-02 0.000000e+00
 -1.316475e-01 1.319702e-02 0.000000e+00
 -9.916519e-02 1.526792e-02 0.000000e+00
 -1.047532e-01 5.282391e-02 0.000000e+00
 -1.074734e-01 1.517180e-02 0.000000e+00
 -5.396138e-03 4.879635e-02 0.000000e+00
 -8.025532e-02 3.022566e-03 0.000000e+00
 -1.441006e-02 1.148194e-01 0.000000e+00
 -6.210840e-02 3.247849e-03 0.000000e+00
 -9.449045e-03 1.225089e-01 0.000000e+00
 -2.509818e-02 8.254009e-02 0.000000e+00
 3.537450e-04 6.570843e-02 0.000000e+00
 -8.004821e-02 3.796091e-03 0.000000e+00
 2.495918e-03 5.716204e-02 0.000000e+00
 -2.181600e-03 5.475643e-02 0.000000e+00
 -1.264747e-03 6.135256e-02 0.000000e+00
 2.254772e-03 1.233431e-01 0.000000e+00
 8.546047e-05 1.271216e-01 0.000000e+00
 -1.366109e-01 1.833661e-02 0.000000e+00
 -2.483330e-04 5.839684e-02 0.000000e+00
 -6.302740e-04 1.263852e-01 0.000000e+00
 -3.573794e-02 1.319896e-03 0.000000e+00
 1.447375e-03 1.182503e-01 0.000000e+00
 -8.590081e-02 1.190569e-01 0.000000e+00
 -7.798977e-02 6.946227e-02 0.000000e+00
 -6.282243e-02 2.684512e-03 0.000000e+00
 -1.006631e-01 3.017540e-02 0.000000e+00
 -1.139355e-01 1.396198e-02 0.000000e+00
 -4.524571e-02 1.228726e-03 0.000000e+00
 -1.110452e-01 2.683483e-02 0.000000e+00
 -3.079318e-02 8.560205e-04 0.000000e+00
 -3.334423e-02 1.443676e-03 0.000000e+00
 0.000000e+00 0.000000e+00 0.000000e+00
 -8.365387e-02 6.374713e-03 0.000000e+00
 -1.012455e-01 2.296910e-02 0.000000e+00
 0.000000e+00 0.000000e+00 0.000000e+00
 -5.209553e-04 2.509207e-04 0.000000e+00
 6.855652e-04 -6.753327e-04 0.000000e+00
 0.000000e+00 0.000000e+00 0.000000e+00
 -1.530801e-01 4.630040e-02 0.000000e+00
 -1.133183e-01 6.461084e-02 0.000000e+00
 1.429354e-04 2.635807e-02 0.000000e+00
 8.349741e-05 2.650193e-02 0.000000e+00
 0.000000e+00 0.000000e+00 0.000000e+00
 7.591949e-05 7.939315e-02 0.000000e+00
 1.995897e-05 1.975033e-02 0.000000e+00
 2.979838e-05 5.394413e-02 0.000000e+00
 7.463746e-05 1.995664e-02 0.000000e+00
 0.000000e+00 0.000000e+00 0.000000e+00
 1.670472e-04 6.705959e-02 0.000000e+00
 1.726004e-04 3.987323e-02 0.000000e+00
 -6.907029e-03 4.604157e-03 0.000000e+00
 -3.418687e-03 1.538104e-03 0.000000e+00
 -1.244457e-04 4.044698e-04 0.000000e+00
 2.261344e-04 4.484467e-02 0.000000e+00
 2.112160e-04 4.449515e-02 0.000000e+00
 0.000000e+00 0.000000e+00 0.000000e+00
 -7.604521e-03 1.552148e-03 0.000000e+00
 0.000000e+00 0.000000e+00 0.000000e+00
 0.000000e+00 0.000000e+00 0.000000e+00
 -3.308387e-02 2.512446e-03 0.000000e+00
 -1.050503e-02 3.877126e-05 0.000000e+00
 -1.788333e-02 9.590444e-04 0.000000e+00
 4.279057e-04 7.877573e-02 0.000000e+00
 1.925470e-04 2.967841e-02 0.000000e+00
 2.023724e-04 3.003474e-02 0.000000e+00
 0.000000e+00 0.000000e+00 0.000000e+00
 -1.346045e-02 1.201396e-02 0.000000e+00
 -5.443528e-03 6.884575e-03 0.000000e+00
 -1.457686e-02 1.541777e-03 0.000000e+00
 0.000000e+00 0.000000e+00 0.000000e+00
 -1.157280e-02 3.995912e-05 0.000000e+00
 0.000000e+00 0.000000e+00 0.000000e+00
 -2.281576e-02 5.950566e-04 0.000000e+00
 -2.121771e-02 4.395582e-04 0.000000e+00
 0.000000e+00 0.000000e+00 0.000000e+00
 -7.044740e-02 7.887472e-03 0.000000e+00
 -5.618236e-02 4.132597e-03 0.000000e+00
 -7.007286e-02 9.981575e-03 0.000000e+00
 -1.788917e-02 5.400598e-04 0.000000e+00
 -1.628562e-02 3.748064e-04 0.000000e+00
 0.000000e+00 0.000000e+00 0.000000e+00
 -5.785937e-02 3.815475e-03 0.000000e+00
 -3.428064e-02 1.483831e-03 0.000000e+00
 -6.113184e-02 2.856179e-03 0.000000e+00
 -3.613720e-02 1.123377e-03 0.000000e+00
 -1.697274e-02 5.527848e-04 0.000000e+00
 -3.181766e-04 7.701704e-02 0.000000e+00
 1.458091e-04 2.680033e-02 0.000000e+00
 2.085673e-04 4.705891e-02 0.000000e+00
 1.730383e-05 2.670186e-02 0.000000e+00
 0.000000e+00 0.000000e+00 0.000000e+00
 -5.930254e-02 6.736038e-02 0.000000e+00
 -7.012411e-02 5.281808e-02 0.000000e+00
 -5.476386e-02 5.421632e-02 0.000000e+00
 -1.027931e-04 2.943363e-02 0.000000e+00
 -1.969414e-02 4.650538e-02 0.000000e+00
 0.000000e+00 0.000000e+00 0.000000e+00
 -5.073069e-04 7.472243e-02 0.000000e+00
 2.072737e-03 2.180321e-02 0.000000e+00
 3.243020e-03 6.127907e-02 0.000000e+00
 1.231148e-03 2.123780e-02 0.000000e+00
 1.878936e-03 2.453851e-02 0.000000e+00
 8.623181e-04 2.309409e-02 0.000000e+00
 0.000000e+00 0.000000e+00 0.000000e+00
 2.374241e-04 1.263724e-01 0.000000e+00
 2.247398e-04 1.189023e-01 0.000000e+00
 5.530354e-05 1.240012e-01 0.000000e+00
 -6.399922e-02 2.319845e-03 0.000000e+00
 -1.796975e-02 3.657484e-04 0.000000e+00
 -7.132285e-02 4.563152e-03 0.000000e+00
 -1.447734e-02 1.099396e-03 0.000000e+00
 -4.574542e-02 3.121355e-03 0.000000e+00
 -6.847769e-02 4.448707e-03 0.000000e+00
 -2.649484e-02 7.448709e-04 0.000000e+00
 -3.753464e-02 1.503575e-03 0.000000e+00
 -9.549434e-02 4.215510e-03 0.000000e+00
 -3.507621e-02 7.202175e-04 0.000000e+00
 -5.499000e-02 1.537409e-03 0.000000e+00
 -6.261419e-02 2.952069e-03 0.000000e+00
 -2.652510e-02 7.141658e-04 0.000000e+00
 0.000000e+00 0.000000e+00 0.000000e+00
 -3.763670e-02 8.378530e-04 0.000000e+00
 0.000000e+00 0.000000e+00 0.000000e+00
 -3.256616e-04 2.835821e-02 0.000000e+00
 -1.225458e-04 2.952878e-02 0.000000e+00
 0.000000e+00 0.000000e+00 0.000000e+00
 -4.081215e-03 8.593585e-02 0.000000e+00
 -2.789471e-03 9.058805e-02 0.000000e+00
 -6.481738e-03 1.051888e-01 0.000000e+00
 2.774902e-04 3.432912e-02 0.000000e+00
 5.225977e-04 3.330107e-02 0.000000e+00
 0.000000e+00 0.000000e+00 0.000000e+00
 -7.966530e-03 6.518157e-02 0.000000e+00
 -1.136493e-03 2.660900e-02 0.000000e+00
 -2.565434e-03 4.586254e-02 0.000000e+00
 -1.232781e-01 1.196136e-02 0.000000e+00
 -1.243482e-01 1.326132e-02 0.000000e+00
 -1.251534e-01 1.122105e-02 0.000000e+00
 -5.535887e-02 1.731875e-03 0.000000e+00
 -5.118124e-02 1.434689e-03 0.000000e+00
 0.000000e+00 0.000000e+00 0.000000e+00
 -1.349136e-03 2.267997e-02 0.000000e+00
 0.000000e+00 0.000000e+00 0.000000e+00
 -3.504460e-03 2.015758e-02 0.000000e+00
 -3.124666e-03 2.698803e-02 0.000000e+00
 0.000000e+00 0.000000e+00 0.000000e+00
 3.542154e-04 1.231148e-01 0.000000e+00
 2.689146e-04 1.241127e-01 0.000000e+00
 5.970750e-05 1.235446e-01 0.000000e+00
 3.384520e-04 1.073668e-01 0.000000e+00
 3.423200e-04 1.213354e-01 0.000000e+00
 1.978311e-04 1.185350e-01 0.000000e+00
 -8.965898e-02 4.788852e-03 0.000000e+00
 -5.618723e-02 2.790716e-03 0.000000e+00
 -3.320104e-02 7.929635e-04 0.000000e+00
 -3.116536e-02 7.192078e-04 0.000000e+00
 0.000000e+00 0.000000e+00 0.000000e+00
 -1.160684e-01 1.735492e-02 0.000000e+00
 -1.127258e-01 1.838460e-02 0.000000e+00
 -1.238996e-01 1.915057e-02 0.000000e+00
 -1.231586e-01 1.369216e-02 0.000000e+00
 -1.234907e-01 1.400375e-02 0.000000e+00
 5.068145e-04 9.584087e-02 0.000000e+00
 2.329545e-04 8.143920e-02 0.000000e+00
 1.079688e-04 4.826180e-02 0.000000e+00
 -6.291005e-02 1.976473e-02 0.000000e+00
 -5.710966e-02 2.843239e-02 0.000000e+00
 -7.001203e-02 3.005041e-02 0.000000e+00
 -4.691574e-02 3.178763e-02 0.000000e+00
 -4.916378e-02 4.141024e-02 0.000000e+00
 -1.571155e-02 1.220143e-01 0.000000e+00
 -7.815729e-03 1.252293e-01 0.000000e+00
 -1.259947e-02 1.263007e-01 0.000000e+00
 -1.048115e-01 6.099097e-03 0.000000e+00
 -1.161893e-01 7.937077e-03 0.000000e+00
 -1.423540e-01 1.845908e-02 0.000000e+00
 -1.301071e-01 2.010563e-02 0.000000e+00
 -1.366028e-01 2.087407e-02 0.000000e+00
 -1.156300e-01 9.343588e-03 0.000000e+00
 -1.235382e-01 1.231984e-02 0.000000e+00
 -1.184139e-01 1.101812e-02 0.000000e+00
 3.371191e-04 1.263869e-01 0.000000e+00
 -2.701051e-03 1.276539e-01 0.000000e+00
 -1.652719e-03 1.263588e-01 0.000000e+00
 8.570315e-04 1.003530e-01 0.000000e+00
 5.202136e-04 6.937438e-02 0.000000e+00
 -1.249676e-01 2.805179e-02 0.000000e+00
 -1.246987e-01 3.377259e-02 0.000000e+00
 -1.396755e-01 3.326007e-02 0.000000e+00
 -2.068136e-03 4.091910e-03 0.000000e+00
 -2.525785e-03 9.767508e-03 0.000000e+00
 0.000000e+00 0.000000e+00 0.000000e+00
 -1.244095e-01 1.001086e-02 0.000000e+00
 -2.479889e-02 4.988242e-02 0.000000e+00
 -3.595596e-02 3.627163e-02 0.000000e+00
 -2.284207e-02 3.772510e-02 0.000000e+00
 -1.187371e-01 2.424814e-02 0.000000e+00
 -1.290477e-01 2.309986e-02 0.000000e+00
 -1.135133e-01 2.102271e-02 0.000000e+00
 -9.291217e-02 1.796465e-02 0.000000e+00
 -9.192972e-02 1.491978e-02 0.000000e+00
 -8.250961e-02 1.225168e-02 0.000000e+00
 3.805993e-04 1.143608e-01 0.000000e+00
 1.690971e-04 9.476122e-02 0.000000e+00
 1.071443e-03 1.228858e-01 0.000000e+00
 1.644527e-03 1.220287e-01 0.000000e+00
 1.148701e-03 1.235196e-01 0.000000e+00
 -1.662373e-03 1.260052e-01 0.000000e+00
 -2.240438e-03 1.260849e-01 0.000000e+00
 -4.358466e-03 1.257073e-01 0.000000e+00
 -9.790988e-03 8.981230e-02 0.000000e+00
 -1.663487e-02 1.028352e-01 0.000000e+00
 -1.841405e-02 9.274267e-02 0.000000e+00
 -4.224803e-02 1.177784e-01 0.000000e+00
 -4.287170e-02 9.895976e-02 0.000000e+00
 -2.818659e-02 1.109353e-01 0.000000e+00
 -1.190872e-01 1.002529e-01 0.000000e+00
 -7.218096e-02 8.156327e-02 0.000000e+00
 -7.017397e-02 2.682057e-03 0.000000e+00
 0.000000e+00 0.000000e+00 0.000000e+00
 -1.146631e-01 7.731620e-03 0.000000e+00
 -8.789313e-02 5.549904e-03 0.000000e+00
 -1.149619e-01 8.760879e-03 0.000000e+00
 -1.178031e-01 1.230506e-02 0.000000e+00
 -1.209607e-01 1.187777e-02 0.000000e+00
 -1.180498e-02 1.089357e-01 0.000000e+00
 -2.059644e-02 1.079819e-01 0.000000e+00
 4.114948e-05 1.264434e-01 0.000000e+00
 -3.581817e-04 1.252773e-01 0.000000e+00
 2.273566e-04 1.222307e-01 0.000000e+00
 -1.811258e-02 1.316562e-01 0.000000e+00
 -2.022271e-02 1.333016e-01 0.000000e+00
 -3.252660e-02 1.294372e-01 0.000000e+00
 -1.245966e-01 1.295446e-02 0.000000e+00
 -1.223891e-01 1.341289e-02 0.000000e+00
 -1.254380e-01 1.338916e-02 0.000000e+00
 -9.510149e-02 1.068210e-02 0.000000e+00
 -1.037743e-01 1.191040e-02 0.000000e+00
 -8.573050e-02 7.156219e-03 0.000000e+00
 -1.297160e-01 1.568141e-02 0.000000e+00
 -1.257730e-01 1.452791e-02 0.000000e+00
 -1.221583e-01 1.570171e-02 0.000000e+00
 -8.611956e-02 2.605121e-02 0.000000e+00
 -9.011018e-02 2.130461e-02 0.000000e+00
 -7.958106e-02 1.790552e-02 0.000000e+00
 -1.547556e-01 2.827879e-02 0.000000e+00
 -1.569422e-01 3.857444e-02 0.000000e+00
 -4.889591e-02 1.231876e-02 0.000000e+00
 -5.878725e-02 1.176492e-02 0.000000e+00
 -4.801192e-02 5.570810e-03 0.000000e+00
 -3.156747e-02 1.056660e-03 0.000000e+00
 -1.433692e-02 6.565564e-05 0.000000e+00
 -4.043435e-02 5.613443e-02 0.000000e+00
 -2.959851e-02 5.868511e-02 0.000000e+00
 -3.181272e-02 6.980884e-02 0.000000e+00
 -1.008501e-01 1.755408e-02 0.000000e+00
 -9.048971e-02 1.276354e-02 0.000000e+00
 8.019927e-04 1.239625e-01 0.000000e+00
 1.013414e-03 1.241056e-01 0.000000e+00
 2.834219e-03 1.164075e-01 0.000000e+00
 1.984536e-03 1.236818e-01 0.000000e+00
 2.263426e-03 1.192892e-01 0.000000e+00
 -1.345385e-03 1.151831e-01 0.000000e+00
 -3.806986e-03 1.187066e-01 0.000000e+00
 -1.656467e-03 1.037181e-01 0.000000e+00
 5.062858e-04 1.251881e-01 0.000000e+00
 -2.556632e-02 6.682152e-03 0.000000e+00
 -2.584701e-02 1.597622e-02 0.000000e+00
 -3.848964e-02 1.411831e-02 0.000000e+00
 -1.119015e-02 2.859313e-02 0.000000e+00
 -2.056863e-02 2.375302e-02 0.000000e+00
 5.205895e-04 1.154015e-01 0.000000e+00
 4.672691e-04 1.062480e-01 0.000000e+00
 4.138665e-04 1.264007e-01 0.000000e+00
 5.388854e-04 1.253643e-01 0.000000e+00
 5.619147e-04 1.262853e-01 0.000000e+00
 -1.035364e-01 1.538057e-02 0.000000e+00
 -9.006697e-02 1.037186e-02 0.000000e+00
 -4.637361e-02 2.519099e-03 0.000000e+00
 -6.631395e-02 5.846180e-03 0.000000e+00
 -6.616370e-02 5.534703e-03 0.000000e+00
 -1.064850e-02 1.184392e-01 0.000000e+00
 -3.123390e-02 1.248482e-01 0.000000e+00
 -1.482531e-01 5.738673e-02 0.000000e+00
 -2.840743e-02 6.891310e-04 0.000000e+00
 0.000000e+00 0.000000e+00 0.000000e+00
 -7.871868e-02 7.815788e-03 0.000000e+00
 -3.432063e-02 7.620482e-02 0.000000e+00
 -2.652056e-02 9.063781e-02 0.000000e+00
 -3.606779e-02 8.507806e-02 0.000000e+00
 -8.443272e-03 4.759965e-02 0.000000e+00
 -1.252210e-02 6.483032e-02 0.000000e+00
 -1.660073e-02 5.736120e-02 0.000000e+00
 1.959370e-03 1.123128e-01 0.000000e+00
 1.308053e-03 1.040368e-01 0.000000e+00
 1.580840e-03 9.087624e-02 0.000000e+00
 -9.296056e-02 6.186222e-02 0.000000e+00
 -9.215907e-02 8.101820e-02 0.000000e+00
 -1.094672e-01 7.180780e-02 0.000000e+00
 -5.455340e-03 1.238245e-01 0.000000e+00
 -6.923269e-03 1.192574e-01 0.000000e+00
 -5.092562e-04 2.421928e-02 0.000000e+00
 -4.167128e-04 2.650839e-02 0.000000e+00
 0.000000e+00 0.000000e+00 0.000000e+00
 -1.204960e-02 1.192414e-01 0.000000e+00
 -1.971635e-02 1.178542e-01 0.000000e+00
 -7.385048e-02 8.862263e-02 0.000000e+00
 -5.513038e-02 8.349853e-02 0.000000e+00
 -1.709608e-02 8.447166e-02 0.000000e+00
 -2.317545e-02 7.591011e-02 0.000000e+00
 -1.559890e-02 7.681129e-02 0.000000e+00
 -1.126327e-01 1.140455e-02 0.000000e+00
 -1.183513e-01 1.425348e-02 0.000000e+00
 -1.407420e-01 1.270078e-02 0.000000e+00
 -1.306519e-01 9.519100e-03 0.000000e+00
 -1.432051e-01 1.502053e-02 0.000000e+00
 -1.065381e-01 2.860586e-02 0.000000e+00
 -9.445466e-02 2.089211e-02 0.000000e+00
 -1.453084e-01 2.320162e-02 0.000000e+00
 -1.517670e-01 1.967710e-02 0.000000e+00
 -6.708954e-02 1.286828e-02 0.000000e+00
 -1.297235e-01 6.894966e-02 0.000000e+00
 -1.271754e-01 8.962415e-02 0.000000e+00
 0.000000e+00 0.000000e+00 0.000000e+00
 -6.432389e-03 1.299948e-01 0.000000e+00
 -2.313155e-03 1.285170e-01 0.000000e+00
 1.940398e-03 1.231347e-01 0.000000e+00
 4.491879e-04 1.214260e-01 0.000000e+00
 5.890414e-04 1.247850e-01 0.000000e+00
 1.290325e-03 1.246855e-01 0.000000e+00
 -1.285373e-01 9.632670e-03 0.000000e+00
 -1.353786e-01 1.293540e-02 0.000000e+00
 -1.259122e-01 8.511475e-03 0.000000e+00
 -1.302018e-01 1.806151e-02 0.000000e+00
 -1.401521e-01 1.564634e-02 0.000000e+00
 -1.351700e-01 1.618081e-02 0.000000e+00
 -9.666185e-02 5.489462e-03 0.000000e+00
 -1.035532e-01 5.922181e-03 0.000000e+00
 -9.339313e-02 4.219031e-03 0.000000e+00
 -1.210156e-01 7.520985e-03 0.000000e+00
 -1.288877e-01 1.175330e-02 0.000000e+00
 -4.428059e-02 2.366745e-02 0.000000e+00
 -4.666534e-02 1.119280e-01 0.000000e+00
 -6.088785e-02 1.296770e-01 0.000000e+00
 2.695820e-03 8.348757e-02 0.000000e+00
 3.598450e-03 8.979273e-02 0.000000e+00
 3.284950e-03 1.071489e-01 0.000000e+00
 1.308772e-03 5.212783e-02 0.000000e+00
 -5.748184e-05 1.094041e-01 0.000000e+00
 3.669325e-03 9.420126e-02 0.000000e+00
 -4.643189e-02 3.223165e-03 0.000000e+00
 -4.252072e-02 1.942181e-03 0.000000e+00
 -5.026485e-02 3.530583e-03 0.000000e+00
 -6.724847e-04 6.023165e-02 0.000000e+00
 -1.661698e-03 9.093617e-02 0.000000e+00
 1.982010e-04 8.061852e-02 0.000000e+00
 3.033196e-04 9.764689e-02 0.000000e+00
 -1.288656e-04 1.068596e-01 0.000000e+00
 -3.636294e-04 1.255824e-01 0.000000e+00
 1.874182e-04 1.258814e-01 0.000000e+00
 -9.228795e-04 1.218143e-01 0.000000e+00
 -1.108922e-01 1.465445e-02 0.000000e+00
 -1.078110e-01 1.153516e-02 0.000000e+00
 -9.223888e-02 5.663345e-03 0.000000e+00
 -8.409507e-02 5.297743e-03 0.000000e+00
 -1.036743e-01 8.662964e-03 0.000000e+00
 1.038521e-03 1.166103e-01 0.000000e+00
 7.430650e-04 1.225059e-01 0.000000e+00
 3.789612e-04 8.753478e-02 0.000000e+00
 5.028507e-04 1.156696e-01 0.000000e+00
 -5.747648e-02 1.242397e-01 0.000000e+00
 -7.900101e-02 1.192754e-01 0.000000e+00
 -1.040179e-01 1.105188e-01 0.000000e+00
 -8.407363e-02 1.016907e-01 0.000000e+00
 -1.280253e-01 1.127479e-02 0.000000e+00
 -1.070903e-01 2.285973e-02 0.000000e+00
 -1.223434e-01 8.480589e-03 0.000000e+00
 -1.094924e-01 1.884929e-02 0.000000e+00
 -8.716693e-02 3.470219e-02 0.000000e+00
 -8.108292e-02 4.525683e-02 0.000000e+00
 -1.240619e-01 4.968029e-02 0.000000e+00