<?xml version="1.0"?>
<VTKFile type="UnstructuredGrid"  version="0.1"  >
<UnstructuredGrid>
<Piece  NumberOfPoints="505" NumberOfCells="928">
<Points>
<DataArray  type="Float32"  NumberOfComponents="3"  format="ascii">
0 0 0
1 0 0
0 1 0
1 0.5 0
0.5 0.5 0
0.5 1 0
0.1 0 0
0.2 0 0
0.3 0 0
0.4 0 0
0.5 0 0
0.6 0 0
0.7 0 0
0.8 0 0
0.9 0 0
0 0.9 0
0 0.8 0
0 0.7 0
0 0.6 0
0 0.5 0
0 0.4 0
0 0.3 0
0 0.2 0
0 0.1 0
0.9 0.5 0
0.8 0.5 0
0.7 0.5 0
0.6 0.5 0
0.5 0.6 0
0.5 0.7 0
0.5 0.8 0
0.5 0.9 0
0.1 1 0
0.2 1 0
0.3 1 0
0.4 1 0
1 0.1 0
1 0.2 0
1 0.3 0
1 0.4 0
0.300178 0.296564 0
0.247566 0.664879 0
0.639694 0.259804 0
0.06564 0.06472 0
0.04439 0.954144 0
0.932418 0.064715 0
0.951013 0.456419 0
0.437622 0.939659 0
0.195334 0.464441 0
0.483382 0.329596 0
0.834786 0.236295 0
0.307228 0.81139 0
0.178229 0.173372 0
0.366998 0.134199 0
0.547485 0.14214 0
0.124832 0.74927 0
0.160163 0.896658 0
0.342556 0.535243 0
0.147651 0.342018 0
0.729803 0.127878 0
0.725981 0.357775 0
0.121369 0.600441 0
0.372954 0.70814 0
0.908503 0.151525 0
0.89851 0.333305 0
0.556275 0.400898 0
0.259184 0.092178 0
0.46329 0.194362 0
0.423773 0.869712 0
0.22823 0.818162 0
0.081292 0.144905 0
0.082979 0.831935 0
0.549999 0.065419 0
0.371537 0.407588 0
0.642628 0.097865 0
0.459835 0.086595 0
0.108565 0.418567 0
0.273082 0.902112 0
0.256598 0.556659 0
0.11951 0.509541 0
0.234147 0.370527 0
0.097453 0.253261 0
0.638438 0.342389 0
0.554656 0.224779 0
0.373432 0.237603 0
0.339663 0.62579 0
0.27079 0.747786 0
0.733958 0.266592 0
0.928527 0.244458 0
0.853116 0.071497 0
0.818426 0.404817 0
0.280194 0.200604 0
0.417859 0.565185 0
0.147241 0.079056 0
0.389149 0.789957 0
0.42808 0.654642 0
0.343469 0.059202 0
0.086765 0.684153 0
0.162043 0.675011 0
0.809252 0.14201 0
0.364337 0.928607 0
0.077532 0.916553 0
0.159064 0.807906 0
0.302124 0.454032 0
0.205909 0.272176 0
0.449664 0.407415 0
0.66041 0.423241 0
0.562201 0.303789 0
0.802658 0.320211 0
0.614551 0.182931 0
0.390944 0.331035 0
0.687136 0.18846 0
0.070577 0.342498 0
0.741087 0.437361 0
0.176989 0.547528 0
0.710251 0.07409 0
0.192845 0.608574 0
0.171114 0.398277 0
0.058959 0.753084 0
0.904 0.425508 0
0.438039 0.730373 0
0.057223 0.475897 0
0.058502 0.552106 0
0.330493 0.750997 0
0.312295 0.699131 0
0.684882 0.307111 0
0.053312 0.627311 0
0.198798 0.743695 0
0.392326 0.069953 0
0.351519 0.860283 0
0.397134 0.477694 0
0.319385 0.371198 0
0.767351 0.069505 0
0.441954 0.271171 0
0.759504 0.192785 0
0.855661 0.457701 0
0.500847 0.264652 0
0.916209 0.0323575 0
0.966209 0.0323575 0
0.95 0 0
0.578137 0.450449 0
0.528137 0.450449 0
0.55 0.5 0
0.03282 0.08236 0
0.03282 0.03236 0
0 0.05 0
0.502969 0.404157 0
0.474832 0.453708 0
0.468811 0.91983 0
0.468811 0.96983 0
0.5 0.95 0
0.072195 0.977072 0
0.022195 0.977072 0
0.05 1 0
0.022195 0.927072 0
0 0.95 0
0.060961 0.935348 0
0.038766 0.908276 0
0.106441 0.071888 0
0.123621 0.039528 0
0.08282 0.03236 0
0.0414895 0.815967 0
0.0414895 0.865968 0
0 0.85 0
0.173621 0.039528 0
0.15 0 0
0.05 0 0
0.301327 0.07569 0
0.321735 0.029601 0
0.279592 0.046089 0
0.070969 0.792509 0
0.0294795 0.776542 0
0.0294795 0.726542 0
0 0.75 0
0.114267 0.111981 0
0.073466 0.104813 0
0.229592 0.046089 0
0.25 0 0
0.371735 0.029601 0
0.35 0 0
0.479917 0.0432975 0
0.429918 0.0432975 0
0.45 0 0
0.461562 0.140479 0
0.413416 0.110397 0
0.415144 0.16428 0
0.574999 0.0327095 0
0.525 0.0327095 0
0.55 0 0
0.596313 0.081642 0
0.621314 0.0489325 0
0.927507 0.440964 0
0.902 0.462754 0
0.925507 0.47821 0
0.0700385 0.655732 0
0.026656 0.663655 0
0.0433825 0.692076 0
0.026656 0.613655 0
0 0.65 0
0.276766 0.370862 0
0.309781 0.333881 0
0.267162 0.333545 0
0.458929 0.582593 0
0.458929 0.532593 0
0.5 0.55 0
0.422969 0.609913 0
0.46404 0.627321 0
0.43306 0.692508 0
0.46902 0.715186 0
0.46404 0.677321 0
0.46902 0.765186 0
0.5 0.75 0
0.180082 0.948329 0
0.130082 0.948329 0
0.15 1 0
0.87983 0.441605 0
0.87783 0.478851 0
0.975507 0.42821 0
0.975507 0.47821 0
1 0.45 0
0.676439 0.0859775 0
0.705125 0.037045 0
0.671314 0.0489325 0
0.779756 0.421089 0
0.770544 0.46868 0
0.809213 0.452408 0
0.738801 0.0717975 0
0.733675 0.0347525 0
0.95 0.5 0
0.720544 0.46868 0
0.75 0.5 0
0.029251 0.526053 0
0.029251 0.576053 0
0 0.55 0
0.089006 0.530824 0
0.0899355 0.576273 0
0.12044 0.554991 0
0.461886 0.884856 0
0.461886 0.834856 0
0.5 0.85 0
0.089571 0.380533 0
0.0352885 0.371249 0
0.0542825 0.409284 0
0.918515 0.197991 0
0.964263 0.222229 0
0.954252 0.175762 0
0.630205 0.46162 0
0.680205 0.46162 0
0.65 0.5 0
0.0352885 0.321249 0
0 0.35 0
0.0487265 0.226631 0
0.0487265 0.276631 0
0 0.25 0
0.286541 0.951056 0
0.236541 0.951056 0
0.25 1 0
0.382169 0.964303 0
0.332168 0.964303 0
0.35 1 0
0.966209 0.0823575 0
1 0.05 0
0.876558 0.0357485 0
0.826558 0.0357485 0
0.85 0 0
0.710547 0.227526 0
0.663415 0.224132 0
0.686826 0.263198 0
0.964263 0.272229 0
1 0.25 0
0.40098 0.934133 0
0.418811 0.96983 0
0.45 1 0
0.326813 0.219104 0
0.290186 0.248584 0
0.336805 0.267084 0
0.243052 0.23639 0
0.253043 0.28437 0
0.224721 0.582616 0
0.220205 0.636726 0
0.252082 0.610769 0
0.92046 0.10812 0
0.954252 0.125762 0
0.66166 0.32475 0
0.662288 0.283458 0
0.639066 0.301096 0
0.949255 0.366653 0
0.949255 0.316653 0
1 0.35 0
0.291542 0.723459 0
0.27993 0.682005 0
0.259178 0.706333 0
0.394055 0.89916 0
0.430698 0.904686 0
0.531524 0.28422 0
0.492115 0.297124 0
0.522791 0.316692 0
0.040646 0.122453 0
0.040646 0.172453 0
0 0.15 0
1 0.15 0
0.151681 0.262718 0
0.192069 0.222774 0
0.137841 0.213317 0
0.558428 0.264284 0
0.600947 0.281797 0
0.597175 0.242291 0
0.508973 0.20957 0
0.551071 0.183459 0
0.505387 0.168251 0
0.118847 0.906605 0
0.088766 0.958276 0
0.3123 0.881198 0
0.329373 0.835836 0
0.290155 0.856751 0
0.18042 0.709353 0
0.223182 0.704287 0
0.204805 0.669945 0
0.114037 0.464054 0
0.157422 0.486991 0
0.15195 0.441504 0
0.279361 0.505346 0
0.248729 0.459236 0
0.225966 0.51055 0
0.423399 0.442555 0
0.448567 0.488847 0
0.892767 0.068106 0
0.65 0 0
0.901255 0.379406 0
0.952 0.412754 0
0.858877 0.146767 0
0.822019 0.189153 0
0.871644 0.19391 0
0.14825 0.528535 0
0.186162 0.505985 0
0.178931 0.775801 0
0.161815 0.746482 0
0.141948 0.778588 0
0.29813 0.591225 0
0.34111 0.580516 0
0.299577 0.545951 0
0.913519 0.288882 0
0.881657 0.240376 0
0.866648 0.2848 0
0.664882 0.143162 0
0.708469 0.158169 0
0.686215 0.112871 0
0.768308 0.293401 0
0.818722 0.278253 0
0.784372 0.251443 0
0.407693 0.254387 0
0.452622 0.232766 0
0.418361 0.215983 0
0.559238 0.352343 0
0.519829 0.365247 0
0.269689 0.146391 0
0.323596 0.167402 0
0.313091 0.113188 0
0.367897 0.0645775 0
0.396163 0.0349765 0
0.220028 0.321352 0
0.17678 0.307097 0
0.190899 0.356272 0
0.584604 0.203855 0
0.581018 0.162535 0
0.250656 0.860137 0
0.267729 0.814776 0
0.359821 0.770477 0
0.31886 0.781193 0
0.348189 0.800674 0
0.124404 0.679582 0
0.141706 0.637726 0
0.104067 0.642297 0
0.216622 0.899385 0
0.203213 0.085617 0
0.162735 0.126214 0
0.218707 0.132775 0
0.0893725 0.199083 0
0.129761 0.159139 0
0.121022 0.819921 0
0.103905 0.790602 0
0.193647 0.813034 0
0.159614 0.852282 0
0.194196 0.85741 0
0.650843 0.185696 0
0.628589 0.140398 0
0.504917 0.076007 0
0.50366 0.114367 0
0.548742 0.103779 0
0.378761 0.595487 0
0.380208 0.550214 0
0.466523 0.368506 0
0.783675 0.0347525 0
0.75 0 0
0.595056 0.120002 0
0.20263 0.384402 0
0.183224 0.431359 0
0.214741 0.417484 0
0.084015 0.29788 0
0.109114 0.342258 0
0.122552 0.29764 0
0.370334 0.82512 0
0.387646 0.864998 0
0.406461 0.829835 0
0.355164 0.351116 0
0.345461 0.389393 0
0.38124 0.369312 0
0.177444 0.641792 0
0.157107 0.604507 0
0.0286115 0.437949 0
0.0286115 0.487949 0
0 0.45 0
0.184917 0.578051 0
0.216794 0.552094 0
0.310754 0.412615 0
0.268135 0.41228 0
0.13984 0.408422 0
0.159382 0.370147 0
0.128108 0.380293 0
0.784378 0.167398 0
0.797145 0.21454 0
0.649424 0.382815 0
0.693196 0.390508 0
0.682209 0.350082 0
0.471401 0.267911 0
0.482069 0.229507 0
0.600319 0.323089 0
0.597356 0.371644 0
0.370215 0.185901 0
0.420304 0.369225 0
0.410601 0.407502 0
0.5 0.65 0
0.293615 0.645334 0
0.325979 0.66246 0
0.342624 0.703635 0
0.356309 0.666965 0
0.24951 0.782974 0
0.289009 0.779588 0
0.810542 0.362514 0
0.76432 0.338993 0
0.772204 0.381296 0
0.70942 0.286852 0
0.705431 0.332443 0
0.729969 0.312184 0
0.831184 0.106754 0
0.88081 0.111511 0
0.700748 0.430301 0
0.733534 0.397568 0
0.850584 0.326758 0
0.229212 0.186988 0
0.407496 0.52144 0
0.369845 0.506468 0
0.413594 0.760165 0
0.405497 0.719256 0
0.381051 0.749049 0
0.444574 0.794979 0
0.383872 0.640216 0
0.400517 0.681391 0
0.355233 0.0967005 0
0.42608 0.078274 0
0.379662 0.102076 0
0.055907 0.589708 0
0.0873405 0.613876 0
0.072862 0.718619 0
0.0918955 0.751177 0
0.105798 0.716711 0
0.234794 0.74574 0
0.213514 0.780928 0
0.143437 0.712141 0
0.72332 0.190623 0
0.744653 0.160332 0
0.788301 0.105758 0
0.748577 0.0986915 0
0.769527 0.134944 0
0.357928 0.894445 0
0.318709 0.915359 0
0.0802555 0.874244 0
0.121571 0.864297 0
0.32234 0.494638 0
0.349629 0.465863 0
0.384335 0.442641 0
0.336831 0.43081 0
0.608343 0.412069 0
0.527752 0.244716 0
0.858468 0.369061 0
0.627123 0.221367 0
0.382188 0.284319 0
0.345561 0.3138 0
0.437163 0.330315 0
0.746731 0.229689 0
0.149179 0.573985 0
0.720027 0.100984 0
0.810234 0.070501 0
0.861213 0.415162 0
0.827831 0.478851 0
0.85 0.5 0
0.082894 0.447232 0
0.0883665 0.492719 0
0.0578625 0.514002 0
0.300642 0.749391 0
0.351723 0.729569 0
0.321394 0.725064 0
0.416449 0.301103 0
0.462668 0.300384 0
0.837044 0.431259 0
</DataArray>
</Points>
<Cells>
<DataArray  type="UInt32"  Name="connectivity"  format="ascii">
1 138 139 
14 137 139 
45 137 138 
137 138 139 
4 141 142 
27 140 142 
65 140 141 
140 141 142 
0 144 145 
23 143 145 
43 143 144 
143 144 145 
4 141 147 
65 141 146 
105 146 147 
141 146 147 
5 149 150 
31 148 150 
47 148 149 
148 149 150 
2 152 153 
32 151 153 
44 151 152 
151 152 153 
2 152 155 
15 154 155 
44 152 154 
152 154 155 
15 154 157 
44 154 156 
101 156 157 
154 156 157 
6 159 160 
43 158 160 
93 158 159 
158 159 160 
15 162 163 
16 161 163 
71 161 162 
161 162 163 
6 159 165 
7 164 165 
93 159 164 
159 164 165 
[...]
<PointData  Vectors="u"> 
<DataArray  type="Float32"  Name="u"  NumberOfComponents="3" format="ascii">
 0.000000e+00 0.000000e+00 0.000000e+00
 0.000000e+00 0.000000e+00 0.000000e+00
 0.000000e+00 0.000000e+00 0.000000e+00
 0.000000e+00 0.000000e+00 0.000000e+00
 0.000000e+00 0.000000e+00 0.000000e+00
 0.000000e+00 0.000000e+00 0.000000e+00
 0.000000e+00 0.000000e+00 0.000000e+00
 0.000000e+00 0.000000e+00 0.000000e+00
 0.000000e+00 0.000000e+00 0.000000e+00
 0.000000e+00 0.000000e+00 0.000000e+00
 0.000000e+00 0.000000e+00 0.000000e+00
 0.000000e+00 0.000000e+00 0.000000e+00
 0.000000e+00 0.000000e+00 0.000000e+00
 0.000000e+00 0.000000e+00 0.000000e+00
 0.000000e+00 0.000000e+00 0.000000e+00
 0.000000e+00 0.000000e+00 0.000000e+00
 0.000000e+00 0.000000e+00 0.000000e+00
 0.000000e+00 0.000000e+00 0.000000e+00
 0.000000e+00 0.000000e+00 0.000000e+00
 0.000000e+00 0.000000e+00 0.000000e+00
 0.000000e+00 0.000000e+00 0.000000e+00
 0.000000e+00 0.000000e+00 0.000000e+00
 0.000000e+00 0.000000e+00 0.000000e+00
 0.000000e+00 0.000000e+00 0.000000e+00
 0.000000e+00 0.000000e+00 0.000000e+00
 0.000000e+00 0.000000e+00 0.000000e+00
 0.000000e+00 0.000000e+00 0.000000e+00
 0.000000e+00 0.000000e+00 0.000000e+00
 0.000000e+00 0.000000e+00 0.000000e+00
 0.000000e+00 0.000000e+00 0.000000e+00
 0.000000e+00 0.000000e+00 0.000000e+00
 0.000000e+00 0.000000e+00 0.000000e+00
 1.019793e-05 -3.410534e-03 0.000000e+00
 1.751393e-05 -3.469925e-03 0.000000e+00
 1.597563e-05 -3.538325e-03 0.000000e+00
 8.941026e-06 -3.587507e-03 0.000000e+00
 3.411046e-03 -8.492684e-06 0.000000e+00
 3.466567e-03 -1.469912e-05 0.000000e+00
 3.537095e-03 -1.635020e-05 0.000000e+00
 3.587607e-03 -1.216793e-05 0.000000e+00
 1.708799e-03 -1.679279e-03 0.000000e+00
 4.613117e-04 -3.402322e-03 0.000000e+00
 3.400061e-03 -5.459106e-04 0.000000e+00
 3.104610e-04 -3.059076e-04 0.000000e+00
 8.319956e-06 -3.221975e-03 0.000000e+00
 3.315426e-03 -1.534368e-05 0.000000e+00
 3.431883e-03 -9.562050e-06 0.000000e+00
 1.686562e-05 -3.518771e-03 0.000000e+00
 8.531520e-04 -2.631050e-03 0.000000e+00
 3.215512e-03 -1.568276e-03 0.000000e+00
 3.478551e-03 -1.359922e-04 0.000000e+00
 1.660551e-04 -3.565228e-03 0.000000e+00
 9.618589e-04 -9.322087e-04 0.000000e+00
 2.022110e-03 -6.682448e-04 0.000000e+00
 2.856948e-03 -4.606484e-04 0.000000e+00
 1.536971e-04 -3.293887e-03 0.000000e+00
 6.105207e-05 -3.429834e-03 0.000000e+00
 1.266317e-03 -3.576972e-03 0.000000e+00
 7.416947e-04 -1.877242e-03 0.000000e+00
 3.272820e-03 -1.783412e-04 0.000000e+00
 3.706915e-03 -2.862768e-04 0.000000e+00
 3.164910e-04 -3.000655e-03 0.000000e+00
 3.199141e-04 -3.768927e-03 0.000000e+00
 3.424929e-03 -5.210036e-05 0.000000e+00
 3.570401e-03 -6.989368e-05 0.000000e+00
 4.149863e-03 -1.193768e-03 0.000000e+00
 1.383690e-03 -4.687664e-04 0.000000e+00
 2.592572e-03 -8.206698e-04 0.000000e+00
 4.792136e-05 -3.573160e-03 0.000000e+00
 1.524394e-04 -3.465168e-03 0.000000e+00
 4.103985e-04 -7.694388e-04 0.000000e+00
 5.627668e-05 -3.292863e-03 0.000000e+00
 2.729200e-03 -1.926326e-04 0.000000e+00
 2.264266e-03 -2.664830e-03 0.000000e+00
 3.031096e-03 -2.057564e-04 0.000000e+00
 2.421553e-03 -3.452925e-04 0.000000e+00
 4.634253e-04 -2.270706e-03 0.000000e+00
 7.225010e-05 -3.517188e-03 0.000000e+00
 8.453551e-04 -3.196416e-03 0.000000e+00
 4.329358e-04 -2.687096e-03 0.000000e+00
 1.232231e-03 -2.149057e-03 0.000000e+00
 4.917593e-04 -1.349111e-03 0.000000e+00
 3.737082e-03 -6.146961e-04 0.000000e+00
 3.080716e-03 -7.280940e-04 0.000000e+00
 2.156145e-03 -1.231544e-03 0.000000e+00
 6.740304e-04 -3.713188e-03 0.000000e+00
 2.744411e-04 -3.505968e-03 0.000000e+00
 3.494701e-03 -2.966632e-04 0.000000e+00
 3.496355e-03 -5.306077e-05 0.000000e+00
 3.293415e-03 -4.257838e-05 0.000000e+00
 3.666688e-03 -1.013906e-04 0.000000e+00
 1.560817e-03 -1.069612e-03 0.000000e+00
 1.042269e-03 -4.332317e-03 0.000000e+00
 7.829667e-04 -3.985577e-04 0.000000e+00
 1.404170e-04 -3.684949e-03 0.000000e+00
 3.479898e-04 -4.007333e-03 0.000000e+00
 1.797633e-03 -2.652608e-04 0.000000e+00
 1.508729e-04 -3.154229e-03 0.000000e+00
 2.998325e-04 -3.234471e-03 0.000000e+00
 3.371328e-03 -1.159007e-04 0.000000e+00
 4.061405e-05 -3.582081e-03 0.000000e+00
 2.585104e-05 -3.381148e-03 0.000000e+00
 1.292688e-04 -3.385077e-03 0.000000e+00
 1.464189e-03 -2.859969e-03 0.000000e+00
 1.111049e-03 -1.508754e-03 0.000000e+00
 3.395346e-03 -2.583648e-03 0.000000e+00
 3.986979e-03 -3.491551e-04 0.000000e+00
 3.449489e-03 -9.613771e-04 0.000000e+00
 3.585542e-03 -1.749678e-04 0.000000e+00
 3.147582e-03 -4.529609e-04 0.000000e+00
 2.438256e-03 -1.893262e-03 0.000000e+00
 3.297632e-03 -3.223098e-04 0.000000e+00
 3.188061e-04 -1.821451e-03 0.000000e+00
 3.730562e-03 -1.292937e-04 0.000000e+00
 5.912170e-04 -2.930701e-03 0.000000e+00
 3.183916e-03 -1.109265e-04 0.000000e+00
 4.955519e-04 -3.157412e-03 0.000000e+00
 8.212421e-04 -2.233947e-03 0.000000e+00
 6.620532e-05 -3.165817e-03 0.000000e+00
 3.607642e-03 -3.419560e-05 0.000000e+00
 1.391456e-04 -3.745843e-03 0.000000e+00
 2.027444e-04 -2.421708e-03 0.000000e+00
 1.681218e-04 -2.718340e-03 0.000000e+00
 2.567561e-04 -3.627616e-03 0.000000e+00
 3.974086e-04 -3.600264e-03 0.000000e+00
 3.587083e-03 -4.302515e-04 0.000000e+00
 1.115686e-04 -2.916782e-03 0.000000e+00
 2.420903e-04 -3.381054e-03 0.000000e+00
 2.110663e-03 -3.002860e-04 0.000000e+00
 9.638034e-05 -3.597432e-03 0.000000e+00
 2.230828e-03 -3.702121e-03 0.000000e+00
 1.815631e-03 -2.249626e-03 0.000000e+00
 3.207032e-03 -7.352926e-05 0.000000e+00
 2.666752e-03 -1.328518e-03 0.000000e+00
 3.388499e-03 -2.111744e-04 0.000000e+00
 3.467618e-03 -2.729029e-05 0.000000e+00
 2.996175e-03 -1.079010e-03 0.000000e+00
 2.860745e-03 -9.105891e-06 0.000000e+00
 2.884878e-03 -4.037936e-06 0.000000e+00
 0.000000e+00 0.000000e+00 0.000000e+00
 4.278462e-03 -6.790519e-04 0.000000e+00
 4.410551e-03 -1.775982e-03 0.000000e+00
 0.000000e+00 0.000000e+00 0.000000e+00
 1.507054e-04 -3.440439e-04 0.000000e+00
 1.413716e-04 -1.400904e-04 0.000000e+00
 0.000000e+00 0.000000e+00 0.000000e+00
 3.962168e-03 -2.074553e-03 0.000000e+00
 4.117420e-03 -3.187283e-03 0.000000e+00
 9.285341e-06 -3.041891e-03 0.000000e+00
 5.371133e-06 -3.041764e-03 0.000000e+00
 0.000000e+00 0.000000e+00 0.000000e+00
 7.480153e-06 -3.339267e-03 0.000000e+00
 2.901769e-06 -2.633971e-03 0.000000e+00
 3.074850e-06 -3.262194e-03 0.000000e+00
 9.265412e-06 -2.596802e-03 0.000000e+00
 0.000000e+00 0.000000e+00 0.000000e+00
 1.573019e-05 -3.324437e-03 0.000000e+00
 1.933861e-05 -3.199719e-03 0.000000e+00
 5.227615e-04 -3.560765e-04 0.000000e+00
 5.761228e-04 -1.698814e-04 0.000000e+00
 3.463827e-04 -1.480883e-04 0.000000e+00
 2.517596e-05 -2.879874e-03 0.000000e+00
 2.172863e-05 -2.915855e-03 0.000000e+00
 0.000000e+00 0.000000e+00 0.000000e+00
 8.320405e-04 -1.883807e-04 0.000000e+00
 0.000000e+00 0.000000e+00 0.000000e+00
 0.000000e+00 0.000000e+00 0.000000e+00
 1.640056e-03 -3.559478e-04 0.000000e+00
 1.469584e-03 -1.355192e-04 0.000000e+00
 1.312301e-03 -1.904425e-04 0.000000e+00
 6.350945e-05 -3.236926e-03 0.000000e+00
 2.626355e-05 -2.741551e-03 0.000000e+00
 3.675676e-05 -2.670546e-03 0.000000e+00
 0.000000e+00 0.000000e+00 0.000000e+00
 6.056191e-04 -5.919834e-04 0.000000e+00
 3.642588e-04 -5.143304e-04 0.000000e+00
 1.100214e-03 -2.097281e-04 0.000000e+00
 0.000000e+00 0.000000e+00 0.000000e+00
 1.605558e-03 -1.141233e-04 0.000000e+00
 0.000000e+00 0.000000e+00 0.000000e+00
 2.189384e-03 -1.399513e-04 0.000000e+00
 1.999151e-03 -1.465377e-04 0.000000e+00
 0.000000e+00 0.000000e+00 0.000000e+00
 2.504499e-03 -5.850112e-04 0.000000e+00
 2.276057e-03 -5.196774e-04 0.000000e+00
 2.312587e-03 -7.557036e-04 0.000000e+00
 2.461711e-03 -8.495576e-05 0.000000e+00
 2.304131e-03 -1.014353e-04 0.000000e+00
 0.000000e+00 0.000000e+00 0.000000e+00
 2.883701e-03 -2.055373e-04 0.000000e+00
 2.639086e-03 -9.542470e-05 0.000000e+00
 3.541089e-03 -1.775744e-05 0.000000e+00
 3.400860e-03 -1.553667e-05 0.000000e+00
 2.772713e-03 -6.849808e-06 0.000000e+00
 1.333409e-04 -3.041652e-03 0.000000e+00
 4.777990e-05 -2.509465e-03 0.000000e+00
 6.956655e-05 -3.006934e-03 0.000000e+00
 5.449426e-05 -2.408556e-03 0.000000e+00
 0.000000e+00 0.000000e+00 0.000000e+00
 1.529055e-03 -2.214909e-03 0.000000e+00
 1.776498e-03 -1.975836e-03 0.000000e+00
 1.462758e-03 -1.910128e-03 0.000000e+00
 5.695043e-04 -4.279598e-03 0.000000e+00
 1.640704e-03 -4.593267e-03 0.000000e+00
 0.000000e+00 0.000000e+00 0.000000e+00
 5.962737e-04 -4.194894e-03 0.000000e+00
 2.405821e-04 -3.773191e-03 0.000000e+00
 2.127779e-04 -3.859742e-03 0.000000e+00
 7.757468e-05 -3.280487e-03 0.000000e+00
 1.293197e-04 -3.482431e-03 0.000000e+00
 6.012080e-05 -3.216716e-03 0.000000e+00
 0.000000e+00 0.000000e+00 0.000000e+00
 3.322149e-05 -3.453561e-03 0.000000e+00
 2.572140e-05 -3.424684e-03 0.000000e+00
 1.432631e-05 -3.438800e-03 0.000000e+00
 3.565586e-03 -3.231214e-05 0.000000e+00
 2.771037e-03 -1.180025e-05 0.000000e+00
 3.542967e-03 -9.218266e-06 0.000000e+00
 2.800259e-03 -3.432937e-06 0.000000e+00
 3.462178e-03 -3.724811e-06 0.000000e+00
 3.112372e-03 -1.432875e-04 0.000000e+00
 3.020332e-03 -6.781584e-05 0.000000e+00
 2.686123e-03 -8.075111e-05 0.000000e+00
 3.696318e-03 -1.179506e-04 0.000000e+00
 3.201110e-03 -5.102014e-05 0.000000e+00
 3.563638e-03 -5.429709e-05 0.000000e+00
 3.190557e-03 -9.334620e-05 0.000000e+00
 2.718882e-03 -4.241986e-05 0.000000e+00
 0.000000e+00 0.000000e+00 0.000000e+00
 3.288853e-03 -7.346524e-05 0.000000e+00
 0.000000e+00 0.000000e+00 0.000000e+00
 7.902389e-05 -2.229208e-03 0.000000e+00
 6.768074e-05 -2.344365e-03 0.000000e+00
 0.000000e+00 0.000000e+00 0.000000e+00
 2.891099e-04 -2.736679e-03 0.000000e+00
 2.522389e-04 -2.879159e-03 0.000000e+00
 3.728503e-04 -2.853803e-03 0.000000e+00
 1.748732e-05 -3.128605e-03 0.000000e+00
 3.422059e-05 -3.217154e-03 0.000000e+00
 0.000000e+00 0.000000e+00 0.000000e+00
 3.874846e-04 -2.032879e-03 0.000000e+00
 1.597041e-04 -1.719057e-03 0.000000e+00
 2.287908e-04 -2.120684e-03 0.000000e+00
 3.462348e-03 -5.588856e-05 0.000000e+00
 3.482293e-03 -2.725366e-05 0.000000e+00
 3.449147e-03 -2.665481e-05 0.000000e+00
 3.828786e-03 -2.691928e-04 0.000000e+00
 3.505080e-03 -1.344285e-04 0.000000e+00
 0.000000e+00 0.000000e+00 0.000000e+00
 1.630783e-04 -1.512466e-03 0.000000e+00
 0.000000e+00 0.000000e+00 0.000000e+00
 2.201937e-04 -1.088855e-03 0.000000e+00
 2.066439e-04 -1.308885e-03 0.000000e+00
 0.000000e+00 0.000000e+00 0.000000e+00
 3.416128e-05 -3.527664e-03 0.000000e+00
 3.624626e-05 -3.490412e-03 0.000000e+00
 1.780270e-05 -3.505490e-03 0.000000e+00
 1.832012e-05 -3.584174e-03 0.000000e+00
 2.528797e-05 -3.559765e-03 0.000000e+00
 1.274755e-05 -3.569672e-03 0.000000e+00
 3.365440e-03 -1.118186e-05 0.000000e+00
 3.276604e-03 -3.913613e-06 0.000000e+00
 2.876554e-03 -1.638075e-05 0.000000e+00
 2.861828e-03 -2.336106e-05 0.000000e+00
 0.000000e+00 0.000000e+00 0.000000e+00
 3.400214e-03 -3.287731e-04 0.000000e+00
 3.343854e-03 -4.164061e-04 0.000000e+00
 3.452106e-03 -4.065658e-04 0.000000e+00
 3.517233e-03 -2.922966e-05 0.000000e+00
 3.501415e-03 -1.591405e-05 0.000000e+00
 2.808116e-05 -3.585765e-03 0.000000e+00
 1.151398e-05 -3.555773e-03 0.000000e+00
 4.936177e-06 -3.471020e-03 0.000000e+00
 1.864615e-03 -1.156786e-03 0.000000e+00
 1.636349e-03 -1.379609e-03 0.000000e+00
 1.950020e-03 -1.467778e-03 0.000000e+00
 1.336484e-03 -1.297269e-03 0.000000e+00
 1.406201e-03 -1.602869e-03 0.000000e+00
 6.331290e-04 -3.175434e-03 0.000000e+00
 4.930182e-04 -3.273744e-03 0.000000e+00
 6.328306e-04 -3.346406e-03 0.000000e+00
 3.389512e-03 -3.071328e-05 0.000000e+00
 3.420804e-03 -2.100110e-05 0.000000e+00
 3.641739e-03 -5.008913e-04 0.000000e+00
 3.515361e-03 -4.856967e-04 0.000000e+00
 3.551167e-03 -6.122541e-04 0.000000e+00
 3.582394e-03 -2.950426e-05 0.000000e+00
 3.551357e-03 -3.335231e-05 0.000000e+00
 3.567732e-03 -1.540350e-05 0.000000e+00
 3.388816e-04 -3.545288e-03 0.000000e+00
 4.386824e-04 -3.518762e-03 0.000000e+00
 3.533252e-04 -3.466314e-03 0.000000e+00
 4.819667e-05 -3.601464e-03 0.000000e+00
 2.935089e-05 -3.551073e-03 0.000000e+00
 3.211539e-03 -1.048186e-03 0.000000e+00
 3.092688e-03 -1.278110e-03 0.000000e+00
 3.392670e-03 -1.242537e-03 0.000000e+00
 1.749291e-04 -5.717969e-04 0.000000e+00
 1.952987e-04 -8.256020e-04 0.000000e+00
 0.000000e+00 0.000000e+00 0.000000e+00
 3.437201e-03 -1.248803e-05 0.000000e+00
 8.118720e-04 -1.432924e-03 0.000000e+00
 1.031833e-03 -1.220844e-03 0.000000e+00
 7.301841e-04 -1.151507e-03 0.000000e+00
 3.246562e-03 -8.367381e-04 0.000000e+00
 3.422411e-03 -7.284285e-04 0.000000e+00
 3.264158e-03 -6.536805e-04 0.000000e+00
 2.866122e-03 -7.840865e-04 0.000000e+00
 2.948300e-03 -6.060555e-04 0.000000e+00
 2.739249e-03 -6.213483e-04 0.000000e+00
 4.065409e-05 -3.402623e-03 0.000000e+00
 1.794375e-05 -3.401209e-03 0.000000e+00
 9.029447e-05 -3.559918e-03 0.000000e+00
 1.285515e-04 -3.586039e-03 0.000000e+00
 1.196580e-04 -3.538704e-03 0.000000e+00
 2.770491e-04 -3.317199e-03 0.000000e+00
 3.300562e-04 -3.383683e-03 0.000000e+00
 3.751959e-04 -3.305944e-03 0.000000e+00
 4.732676e-04 -2.498229e-03 0.000000e+00
 6.114875e-04 -2.637905e-03 0.000000e+00
 6.505470e-04 -2.447812e-03 0.000000e+00
 1.135127e-03 -3.050503e-03 0.000000e+00
 1.130368e-03 -2.724219e-03 0.000000e+00
 9.009745e-04 -2.904705e-03 0.000000e+00
 2.942193e-03 -3.283507e-03 0.000000e+00
 2.909937e-03 -4.376716e-03 0.000000e+00
 3.317338e-03 -2.818779e-05 0.000000e+00
 0.000000e+00 0.000000e+00 0.000000e+00
 3.603729e-03 -5.172295e-05 0.000000e+00
 3.597661e-03 -2.288079e-05 0.000000e+00
 3.403156e-03 -8.536202e-05 0.000000e+00
 3.421532e-03 -1.296938e-04 0.000000e+00
 3.445528e-03 -9.120376e-05 0.000000e+00
 5.185768e-04 -2.812713e-03 0.000000e+00
 7.062690e-04 -2.811228e-03 0.000000e+00
 1.778371e-04 -3.381666e-03 0.000000e+00
 2.008384e-04 -3.331371e-03 0.000000e+00
 1.420788e-04 -3.344312e-03 0.000000e+00
 7.839116e-04 -3.467212e-03 0.000000e+00
 9.514618e-04 -3.681805e-03 0.000000e+00
 1.054709e-03 -3.364679e-03 0.000000e+00
 3.528803e-03 -6.390454e-05 0.000000e+00
 3.489878e-03 -8.787610e-05 0.000000e+00
 3.530275e-03 -1.068493e-04 0.000000e+00
 3.189215e-03 -2.823343e-04 0.000000e+00
 3.272928e-03 -2.436845e-04 0.000000e+00
 3.189758e-03 -2.025563e-04 0.000000e+00
 3.553956e-03 -2.318737e-04 0.000000e+00
 3.531482e-03 -1.622193e-04 0.000000e+00
 3.488030e-03 -2.089151e-04 0.000000e+00
 2.434439e-03 -1.298778e-03 0.000000e+00
 2.623988e-03 -1.090738e-03 0.000000e+00
 2.375768e-03 -1.017434e-03 0.000000e+00
 3.733131e-03 -1.102475e-03 0.000000e+00
 3.653420e-03 -1.516908e-03 0.000000e+00
 1.486848e-03 -7.743874e-04 0.000000e+00
 1.791994e-03 -8.569561e-04 0.000000e+00
 1.702834e-03 -5.886068e-04 0.000000e+00
 1.960989e-03 -2.886562e-04 0.000000e+00
 2.004401e-03 -1.535891e-04 0.000000e+00
 1.186937e-03 -1.813009e-03 0.000000e+00
 9.114727e-04 -1.710758e-03 0.000000e+00
 9.843466e-04 -1.979724e-03 0.000000e+00
 3.122961e-03 -5.762657e-04 0.000000e+00
 3.020816e-03 -4.578160e-04 0.000000e+00
 1.126904e-04 -3.493274e-03 0.000000e+00
 1.634943e-04 -3.514436e-03 0.000000e+00
 2.081759e-04 -3.661909e-03 0.000000e+00
 2.107302e-04 -3.597107e-03 0.000000e+00
 1.644059e-04 -3.625690e-03 0.000000e+00
 2.269683e-04 -3.186304e-03 0.000000e+00
 3.103151e-04 -3.129806e-03 0.000000e+00
 2.268802e-04 -3.091555e-03 0.000000e+00
 7.001475e-05 -3.471784e-03 0.000000e+00
 1.064976e-03 -4.330936e-04 0.000000e+00
 8.821259e-04 -6.528854e-04 0.000000e+00
 1.182748e-03 -7.029047e-04 0.000000e+00
 4.518044e-04 -1.044152e-03 0.000000e+00
 6.733354e-04 -8.606018e-04 0.000000e+00
 9.571405e-05 -3.364114e-03 0.000000e+00
 9.963569e-05 -3.313386e-03 0.000000e+00
 1.435173e-04 -3.421090e-03 0.000000e+00
 9.566937e-05 -3.407197e-03 0.000000e+00
 1.039534e-04 -3.447158e-03 0.000000e+00
 3.225987e-03 -3.846269e-04 0.000000e+00
 3.104041e-03 -3.414575e-04 0.000000e+00
 2.595880e-03 -2.580795e-04 0.000000e+00
 2.657778e-03 -4.318057e-04 0.000000e+00
 2.804537e-03 -3.175582e-04 0.000000e+00
 8.285576e-04 -3.976687e-03 0.000000e+00
 1.247339e-03 -3.936516e-03 0.000000e+00
 3.315359e-03 -1.982590e-03 0.000000e+00
 2.810741e-03 -3.175981e-05 0.000000e+00
 0.000000e+00 0.000000e+00 0.000000e+00
 2.971121e-03 -3.241182e-04 0.000000e+00
 9.887701e-04 -2.205379e-03 0.000000e+00
 8.356922e-04 -2.396305e-03 0.000000e+00
 1.069338e-03 -2.434788e-03 0.000000e+00
 3.962050e-04 -1.618490e-03 0.000000e+00
 5.173065e-04 -1.855072e-03 0.000000e+00
 6.364317e-04 -1.637225e-03 0.000000e+00
 1.184840e-04 -3.631745e-03 0.000000e+00
 7.588859e-05 -3.615547e-03 0.000000e+00
 8.331796e-05 -3.622530e-03 0.000000e+00
 2.107994e-03 -2.089711e-03 0.000000e+00
 2.026249e-03 -2.441504e-03 0.000000e+00
 2.409045e-03 -2.299838e-03 0.000000e+00
 3.914549e-04 -3.196730e-03 0.000000e+00
 4.129577e-04 -3.076186e-03 0.000000e+00
 1.197212e-04 -1.961875e-03 0.000000e+00
 9.274569e-05 -2.082752e-03 0.000000e+00
 0.000000e+00 0.000000e+00 0.000000e+00
 5.506259e-04 -3.052136e-03 0.000000e+00
 7.162297e-04 -3.025469e-03 0.000000e+00
 1.665802e-03 -2.531878e-03 0.000000e+00
 1.349485e-03 -2.483990e-03 0.000000e+00
 6.678316e-04 -2.251877e-03 0.000000e+00
 7.949394e-04 -2.081112e-03 0.000000e+00
 5.920331e-04 -2.072184e-03 0.000000e+00
 3.379389e-03 -1.619406e-04 0.000000e+00
 3.435464e-03 -1.808181e-04 0.000000e+00
 3.903749e-03 -5.158556e-04 0.000000e+00
 3.836375e-03 -3.301133e-04 0.000000e+00
 3.745758e-03 -4.247004e-04 0.000000e+00
 2.842580e-03 -1.200645e-03 0.000000e+00
 2.804271e-03 -9.695294e-04 0.000000e+00
 3.627197e-03 -8.050065e-04 0.000000e+00
 3.892416e-03 -8.143688e-04 0.000000e+00
 2.092399e-03 -9.379296e-04 0.000000e+00
 2.828882e-03 -2.194934e-03 0.000000e+00
 2.712544e-03 -2.671834e-03 0.000000e+00
 0.000000e+00 0.000000e+00 0.000000e+00
 5.819120e-04 -3.516219e-03 0.000000e+00
 4.984810e-04 -3.639937e-03 0.000000e+00
 3.730087e-04 -3.687329e-03 0.000000e+00
 4.648809e-04 -3.778501e-03 0.000000e+00
 2.103333e-04 -3.483321e-03 0.000000e+00
 2.164731e-04 -3.540671e-03 0.000000e+00
 3.633421e-03 -1.451654e-04 0.000000e+00
 3.630906e-03 -2.237347e-04 0.000000e+00
 3.693715e-03 -1.795628e-04 0.000000e+00
 3.541480e-03 -3.700348e-04 0.000000e+00
 3.647385e-03 -3.719038e-04 0.000000e+00
 3.596674e-03 -2.990298e-04 0.000000e+00
 3.354066e-03 -7.635516e-05 0.000000e+00
 3.381663e-03 -5.311841e-05 0.000000e+00
 3.838288e-03 -2.068114e-04 0.000000e+00
 3.765810e-03 -2.121879e-04 0.000000e+00
 3.577414e-03 -1.198263e-04 0.000000e+00
 1.259631e-03 -9.977755e-04 0.000000e+00
 1.824290e-03 -4.207490e-03 0.000000e+00
 1.664490e-03 -3.645283e-03 0.000000e+00
 1.442416e-04 -3.714310e-03 0.000000e+00
 2.302465e-04 -3.802962e-03 0.000000e+00
 2.179834e-04 -3.727682e-03 0.000000e+00
 7.387992e-05 -3.602502e-03 0.000000e+00
 5.469383e-04 -3.932559e-03 0.000000e+00
 3.523244e-04 -3.883107e-03 0.000000e+00
 1.889535e-03 -4.493938e-04 0.000000e+00
 2.232537e-03 -3.153969e-04 0.000000e+00
 2.083509e-03 -4.486877e-04 0.000000e+00
 1.418289e-04 -2.837575e-03 0.000000e+00
 2.022646e-04 -2.983817e-03 0.000000e+00
 9.949254e-05 -3.166827e-03 0.000000e+00
 1.075356e-04 -3.255678e-03 0.000000e+00
 1.591969e-04 -3.230647e-03 0.000000e+00
 2.659972e-04 -3.442063e-03 0.000000e+00
 1.976757e-04 -3.429388e-03 0.000000e+00
 2.181659e-04 -3.267075e-03 0.000000e+00
 3.352086e-03 -2.625920e-04 0.000000e+00
 3.331147e-03 -1.992220e-04 0.000000e+00
 3.314925e-03 -1.000106e-04 0.000000e+00
 3.270570e-03 -1.228312e-04 0.000000e+00
 3.326782e-03 -1.458178e-04 0.000000e+00
 6.690683e-05 -3.588365e-03 0.000000e+00
 5.565331e-05 -3.555776e-03 0.000000e+00
 3.876566e-05 -3.336918e-03 0.000000e+00
 6.587793e-05 -3.381531e-03 0.000000e+00
 1.413268e-03 -3.260440e-03 0.000000e+00
 1.810428e-03 -3.200968e-03 0.000000e+00
 2.285023e-03 -3.084695e-03 0.000000e+00
 1.886703e-03 -2.817554e-03 0.000000e+00
 4.148910e-03 -6.460778e-04 0.000000e+00
 3.036180e-03 -9.031539e-04 0.000000e+00
 3.616402e-03 -9.031984e-05 0.000000e+00
 3.262495e-03 -5.099523e-04 0.000000e+00