<?xml version="1.0"?>
<VTKFile type="UnstructuredGrid"  version="0.1"  >
<UnstructuredGrid>
<Piece  NumberOfPoints="505" NumberOfCells="928">
<Points>
<DataArray  type="Float32"  NumberOfComponents="3"  format="ascii">
0 0 0
1 0 0
0 1 0
1 0.5 0
0.5 0.5 0
0.5 1 0
0.1 0 0
0.2 0 0
0.3 0 0
0.4 0 0
0.5 0 0
0.6 0 0
0.7 0 0
0.8 0 0
0.9 0 0
0 0.9 0
0 0.8 0
0 0.7 0
0 0.6 0
0 0.5 0
0 0.4 0
0 0.3 0
0 0.2 0
0 0.1 0
0.9 0.5 0
0.8 0.5 0
0.7 0.5 0
0.6 0.5 0
0.5 0.6 0
0.5 0.7 0
0.5 0.8 0
0.5 0.9 0
0.1 1 0
0.2 1 0
0.3 1 0
0.4 1 0
1 0.1 0
1 0.2 0
1 0.3 0
1 0.4 0
0.300178 0.296564 0
0.247566 0.664879 0
0.639694 0.259804 0
0.06564 0.06472 0
0.04439 0.954144 0
0.932418 0.064715 0
0.951013 0.456419 0
0.437622 0.939659 0
0.195334 0.464441 0
0.483382 0.329596 0
0.834786 0.236295 0
0.307228 0.81139 0
0.178229 0.173372 0
0.366998 0.134199 0
0.547485 0.14214 0
0.124832 0.74927 0
0.160163 0.896658 0
0.342556 0.535243 0
0.147651 0.342018 0
0.729803 0.127878 0
0.725981 0.357775 0
0.121369 0.600441 0
0.372954 0.70814 0
0.908503 0.151525 0
0.89851 0.333305 0
0.556275 0.400898 0
0.259184 0.092178 0
0.46329 0.194362 0
0.423773 0.869712 0
0.22823 0.818162 0
0.081292 0.144905 0
0.082979 0.831935 0
0.549999 0.065419 0
0.371537 0.407588 0
0.642628 0.097865 0
0.459835 0.086595 0
0.108565 0.418567 0
0.273082 0.902112 0
0.256598 0.556659 0
0.11951 0.509541 0
0.234147 0.370527 0
0.097453 0.253261 0
0.638438 0.342389 0
0.554656 0.224779 0
0.373432 0.237603 0
0.339663 0.62579 0
0.27079 0.747786 0
0.733958 0.266592 0
0.928527 0.244458 0
0.853116 0.071497 0
0.818426 0.404817 0
0.280194 0.200604 0
0.417859 0.565185 0
0.147241 0.079056 0
0.389149 0.789957 0
0.42808 0.654642 0
0.343469 0.059202 0
0.086765 0.684153 0
0.162043 0.675011 0
0.809252 0.14201 0
0.364337 0.928607 0
0.077532 0.916553 0
0.159064 0.807906 0
0.302124 0.454032 0
0.205909 0.272176 0
0.449664 0.407415 0
0.66041 0.423241 0
0.562201 0.303789 0
0.802658 0.320211 0
0.614551 0.182931 0
0.390944 0.331035 0
0.687136 0.18846 0
0.070577 0.342498 0
0.741087 0.437361 0
0.176989 0.547528 0
0.710251 0.07409 0
0.192845 0.608574 0
0.171114 0.398277 0
0.058959 0.753084 0
0.904 0.425508 0
0.438039 0.730373 0
0.057223 0.475897 0
0.058502 0.552106 0
0.330493 0.750997 0
0.312295 0.699131 0
0.684882 0.307111 0
0.053312 0.627311 0
0.198798 0.743695 0
0.392326 0.069953 0
0.351519 0.860283 0
0.397134 0.477694 0
0.319385 0.371198 0
0.767351 0.069505 0
0.441954 0.271171 0
0.759504 0.192785 0
0.855661 0.457701 0
0.500847 0.264652 0
0.916209 0.0323575 0
0.966209 0.0323575 0
0.95 0 0
0.578137 0.450449 0
0.528137 0.450449 0
0.55 0.5 0
0.03282 0.08236 0
0.03282 0.03236 0
0 0.05 0
0.502969 0.404157 0
0.474832 0.453708 0
0.468811 0.91983 0
0.468811 0.96983 0
0.5 0.95 0
0.072195 0.977072 0
0.022195 0.977072 0
0.05 1 0
0.022195 0.927072 0
0 0.95 0
0.060961 0.935348 0
0.038766 0.908276 0
0.106441 0.071888 0
0.123621 0.039528 0
0.08282 0.03236 0
0.0414895 0.815967 0
0.0414895 0.865968 0
0 0.85 0
0.173621 0.039528 0
0.15 0 0
0.05 0 0
0.301327 0.07569 0
0.321735 0.029601 0
0.279592 0.046089 0
0.070969 0.792509 0
0.0294795 0.776542 0
0.0294795 0.726542 0
0 0.75 0
0.114267 0.111981 0
0.073466 0.104813 0
0.229592 0.046089 0
0.25 0 0
0.371735 0.029601 0
0.35 0 0
0.479917 0.0432975 0
0.429918 0.0432975 0
0.45 0 0
0.461562 0.140479 0
0.413416 0.110397 0
0.415144 0.16428 0
0.574999 0.0327095 0
0.525 0.0327095 0
0.55 0 0
0.596313 0.081642 0
0.621314 0.0489325 0
0.927507 0.440964 0
0.902 0.462754 0
0.925507 0.47821 0
0.0700385 0.655732 0
0.026656 0.663655 0
0.0433825 0.692076 0
0.026656 0.613655 0
0 0.65 0
0.276766 0.370862 0
0.309781 0.333881 0
0.267162 0.333545 0
0.458929 0.582593 0
0.458929 0.532593 0
0.5 0.55 0
0.422969 0.609913 0
0.46404 0.627321 0
0.43306 0.692508 0
0.46902 0.715186 0
0.46404 0.677321 0
0.46902 0.765186 0
0.5 0.75 0
0.180082 0.948329 0
0.130082 0.948329 0
0.15 1 0
0.87983 0.441605 0
0.87783 0.478851 0
0.975507 0.42821 0
0.975507 0.47821 0
1 0.45 0
0.676439 0.0859775 0
0.705125 0.037045 0
0.671314 0.0489325 0
0.779756 0.421089 0
0.770544 0.46868 0
0.809213 0.452408 0
0.738801 0.0717975 0
0.733675 0.0347525 0
0.95 0.5 0
0.720544 0.46868 0
0.75 0.5 0
0.029251 0.526053 0
0.029251 0.576053 0
0 0.55 0
0.089006 0.530824 0
0.0899355 0.576273 0
0.12044 0.554991 0
0.461886 0.884856 0
0.461886 0.834856 0
0.5 0.85 0
0.089571 0.380533 0
0.0352885 0.371249 0
0.0542825 0.409284 0
0.918515 0.197991 0
0.964263 0.222229 0
0.954252 0.175762 0
0.630205 0.46162 0
0.680205 0.46162 0
0.65 0.5 0
0.0352885 0.321249 0
0 0.35 0
0.0487265 0.226631 0
0.0487265 0.276631 0
0 0.25 0
0.286541 0.951056 0
0.236541 0.951056 0
0.25 1 0
0.382169 0.964303 0
0.332168 0.964303 0
0.35 1 0
0.966209 0.0823575 0
1 0.05 0
0.876558 0.0357485 0
0.826558 0.0357485 0
0.85 0 0
0.710547 0.227526 0
0.663415 0.224132 0
0.686826 0.263198 0
0.964263 0.272229 0
1 0.25 0
0.40098 0.934133 0
0.418811 0.96983 0
0.45 1 0
0.326813 0.219104 0
0.290186 0.248584 0
0.336805 0.267084 0
0.243052 0.23639 0
0.253043 0.28437 0
0.224721 0.582616 0
0.220205 0.636726 0
0.252082 0.610769 0
0.92046 0.10812 0
0.954252 0.125762 0
0.66166 0.32475 0
0.662288 0.283458 0
0.639066 0.301096 0
0.949255 0.366653 0
0.949255 0.316653 0
1 0.35 0
0.291542 0.723459 0
0.27993 0.682005 0
0.259178 0.706333 0
0.394055 0.89916 0
0.430698 0.904686 0
0.531524 0.28422 0
0.492115 0.297124 0
0.522791 0.316692 0
0.040646 0.122453 0
0.040646 0.172453 0
0 0.15 0
1 0.15 0
0.151681 0.262718 0
0.192069 0.222774 0
0.137841 0.213317 0
0.558428 0.264284 0
0.600947 0.281797 0
0.597175 0.242291 0
0.508973 0.20957 0
0.551071 0.183459 0
0.505387 0.168251 0
0.118847 0.906605 0
0.088766 0.958276 0
0.3123 0.881198 0
0.329373 0.835836 0
0.290155 0.856751 0
0.18042 0.709353 0
0.223182 0.704287 0
0.204805 0.669945 0
0.114037 0.464054 0
0.157422 0.486991 0
0.15195 0.441504 0
0.279361 0.505346 0
0.248729 0.459236 0
0.225966 0.51055 0
0.423399 0.442555 0
0.448567 0.488847 0
0.892767 0.068106 0
0.65 0 0
0.901255 0.379406 0
0.952 0.412754 0
0.858877 0.146767 0
0.822019 0.189153 0
0.871644 0.19391 0
0.14825 0.528535 0
0.186162 0.505985 0
0.178931 0.775801 0
0.161815 0.746482 0
0.141948 0.778588 0
0.29813 0.591225 0
0.34111 0.580516 0
0.299577 0.545951 0
0.913519 0.288882 0
0.881657 0.240376 0
0.866648 0.2848 0
0.664882 0.143162 0
0.708469 0.158169 0
0.686215 0.112871 0
0.768308 0.293401 0
0.818722 0.278253 0
0.784372 0.251443 0
0.407693 0.254387 0
0.452622 0.232766 0
0.418361 0.215983 0
0.559238 0.352343 0
0.519829 0.365247 0
0.269689 0.146391 0
0.323596 0.167402 0
0.313091 0.113188 0
0.367897 0.0645775 0
0.396163 0.0349765 0
0.220028 0.321352 0
0.17678 0.307097 0
0.190899 0.356272 0
0.584604 0.203855 0
0.581018 0.162535 0
0.250656 0.860137 0
0.267729 0.814776 0
0.359821 0.770477 0
0.31886 0.781193 0
0.348189 0.800674 0
0.124404 0.679582 0
0.141706 0.637726 0
0.104067 0.642297 0
0.216622 0.899385 0
0.203213 0.085617 0
0.162735 0.126214 0
0.218707 0.132775 0
0.0893725 0.199083 0
0.129761 0.159139 0
0.121022 0.819921 0
0.103905 0.790602 0
0.193647 0.813034 0
0.159614 0.852282 0
0.194196 0.85741 0
0.650843 0.185696 0
0.628589 0.140398 0
0.504917 0.076007 0
0.50366 0.114367 0
0.548742 0.103779 0
0.378761 0.595487 0
0.380208 0.550214 0
0.466523 0.368506 0
0.783675 0.0347525 0
0.75 0 0
0.595056 0.120002 0
0.20263 0.384402 0
0.183224 0.431359 0
0.214741 0.417484 0
0.084015 0.29788 0
0.109114 0.342258 0
0.122552 0.29764 0
0.370334 0.82512 0
0.387646 0.864998 0
0.406461 0.829835 0
0.355164 0.351116 0
0.345461 0.389393 0
0.38124 0.369312 0
0.177444 0.641792 0
0.157107 0.604507 0
0.0286115 0.437949 0
0.0286115 0.487949 0
0 0.45 0
0.184917 0.578051 0
0.216794 0.552094 0
0.310754 0.412615 0
0.268135 0.41228 0
0.13984 0.408422 0
0.159382 0.370147 0
0.128108 0.380293 0
0.784378 0.167398 0
0.797145 0.21454 0
0.649424 0.382815 0
0.693196 0.390508 0
0.682209 0.350082 0
0.471401 0.267911 0
0.482069 0.229507 0
0.600319 0.323089 0
0.597356 0.371644 0
0.370215 0.185901 0
0.420304 0.369225 0
0.410601 0.407502 0
0.5 0.65 0
0.293615 0.645334 0
0.325979 0.66246 0
0.342624 0.703635 0
0.356309 0.666965 0
0.24951 0.782974 0
0.289009 0.779588 0
0.810542 0.362514 0
0.76432 0.338993 0
0.772204 0.381296 0
0.70942 0.286852 0
0.705431 0.332443 0
0.729969 0.312184 0
0.831184 0.106754 0
0.88081 0.111511 0
0.700748 0.430301 0
0.733534 0.397568 0
0.850584 0.326758 0
0.229212 0.186988 0
0.407496 0.52144 0
0.369845 0.506468 0
0.413594 0.760165 0
0.405497 0.719256 0
0.381051 0.749049 0
0.444574 0.794979 0
0.383872 0.640216 0
0.400517 0.681391 0
0.355233 0.0967005 0
0.42608 0.078274 0
0.379662 0.102076 0
0.055907 0.589708 0
0.0873405 0.613876 0
0.072862 0.718619 0
0.0918955 0.751177 0
0.105798 0.716711 0
0.234794 0.74574 0
0.213514 0.780928 0
0.143437 0.712141 0
0.72332 0.190623 0
0.744653 0.160332 0
0.788301 0.105758 0
0.748577 0.0986915 0
0.769527 0.134944 0
0.357928 0.894445 0
0.318709 0.915359 0
0.0802555 0.874244 0
0.121571 0.864297 0
0.32234 0.494638 0
0.349629 0.465863 0
0.384335 0.442641 0
0.336831 0.43081 0
0.608343 0.412069 0
0.527752 0.244716 0
0.858468 0.369061 0
0.627123 0.221367 0
0.382188 0.284319 0
0.345561 0.3138 0
0.437163 0.330315 0
0.746731 0.229689 0
0.149179 0.573985 0
0.720027 0.100984 0
0.810234 0.070501 0
0.861213 0.415162 0
0.827831 0.478851 0
0.85 0.5 0
0.082894 0.447232 0
0.0883665 0.492719 0
0.0578625 0.514002 0
0.300642 0.749391 0
0.351723 0.729569 0
0.321394 0.725064 0
0.416449 0.301103 0
0.462668 0.300384 0
0.837044 0.431259 0
</DataArray>
</Points>
<Cells>
<DataArray  type="UInt32"  Name="connectivity"  format="ascii">
1 138 139 
14 137 139 
45 137 138 
137 138 139 
4 141 142 
27 140 142 
65 140 141 
140 141 142 
0 144 145 
23 143 145 
43 143 144 
143 144 145 
4 141 147 
65 141 146 
105 146 147 
141 146 147 
5 149 150 
31 148 150 
47 148 149 
148 149 150 
2 152 153 
32 151 153 
44 151 152 
151 152 153 
2 152 155 
15 154 155 
44 152 154 
152 154 155 
15 154 157 
44 154 156 
101 156 157 
154 156 157 
6 159 160 
43 158 160 
93 158 159 
158 159 160 
15 162 163 
16 161 163 
71 161 162 
161 162 163 
6 159 165 
7 164 165 
93 159 164 
159 164 165 
[...]
<PointData  Vectors="u"> 
<DataArray  type="Float32"  Name="u"  NumberOfComponents="3" format="ascii">
 0.000000e+00 0.000000e+00 0.000000e+00
 0.000000e+00 0.000000e+00 0.000000e+00
 0.000000e+00 0.000000e+00 0.000000e+00
 0.000000e+00 0.000000e+00 0.000000e+00
 0.000000e+00 0.000000e+00 0.000000e+00
 0.000000e+00 0.000000e+00 0.000000e+00
 0.000000e+00 0.000000e+00 0.000000e+00
 0.000000e+00 0.000000e+00 0.000000e+00
 0.000000e+00 0.000000e+00 0.000000e+00
 0.000000e+00 0.000000e+00 0.000000e+00
 0.000000e+00 0.000000e+00 0.000000e+00
 0.000000e+00 0.000000e+00 0.000000e+00
 0.000000e+00 0.000000e+00 0.000000e+00
 0.000000e+00 0.000000e+00 0.000000e+00
 0.000000e+00 0.000000e+00 0.000000e+00
 0.000000e+00 0.000000e+00 0.000000e+00
 0.000000e+00 0.000000e+00 0.000000e+00
 0.000000e+00 0.000000e+00 0.000000e+00
 0.000000e+00 0.000000e+00 0.000000e+00
 0.000000e+00 0.000000e+00 0.000000e+00
 0.000000e+00 0.000000e+00 0.000000e+00
 0.000000e+00 0.000000e+00 0.000000e+00
 0.000000e+00 0.000000e+00 0.000000e+00
 0.000000e+00 0.000000e+00 0.000000e+00
 0.000000e+00 0.000000e+00 0.000000e+00
 0.000000e+00 0.000000e+00 0.000000e+00
 0.000000e+00 0.000000e+00 0.000000e+00
 0.000000e+00 0.000000e+00 0.000000e+00
 0.000000e+00 0.000000e+00 0.000000e+00
 0.000000e+00 0.000000e+00 0.000000e+00
 0.000000e+00 0.000000e+00 0.000000e+00
 0.000000e+00 0.000000e+00 0.000000e+00
 1.325872e-03 -3.490756e-01 0.000000e+00
 2.500274e-03 -4.686586e-01 0.000000e+00
 2.637279e-03 -4.796822e-01 0.000000e+00
 1.528808e-03 -3.715876e-01 0.000000e+00
 3.698677e-01 1.588532e-03 0.000000e+00
 4.787885e-01 3.345807e-03 0.000000e+00
 4.704726e-01 4.176210e-03 0.000000e+00
 3.499648e-01 2.546976e-03 0.000000e+00
 2.213321e-01 -2.552700e-01 0.000000e+00
 4.255979e-02 -4.746841e-01 0.000000e+00
 4.985884e-01 -3.510469e-02 0.000000e+00
 7.573020e-03 -8.004323e-03 0.000000e+00
 4.835518e-04 -1.874877e-01 0.000000e+00
 2.772701e-01 1.564395e-03 0.000000e+00
 1.833271e-01 1.184709e-03 0.000000e+00
 1.059640e-03 -2.699488e-01 0.000000e+00
 8.742206e-02 -3.661226e-01 0.000000e+00
 4.448893e-01 -2.241224e-01 0.000000e+00
 4.892450e-01 9.711622e-03 0.000000e+00
 1.316318e-02 -4.793980e-01 0.000000e+00
 9.320197e-02 -1.058996e-01 0.000000e+00
 2.592195e-01 -7.721036e-02 0.000000e+00
 4.012759e-01 -4.176730e-02 0.000000e+00
 1.154212e-02 -3.828591e-01 0.000000e+00
 4.227100e-03 -4.381621e-01 0.000000e+00
 1.242659e-01 -4.812774e-01 0.000000e+00
 6.837416e-02 -2.326416e-01 0.000000e+00
 4.261793e-01 9.425410e-04 0.000000e+00
 4.177346e-01 1.232888e-02 0.000000e+00
 2.599016e-02 -3.451139e-01 0.000000e+00
 2.515161e-02 -4.399319e-01 0.000000e+00
 4.500545e-01 5.251038e-03 0.000000e+00
 4.462392e-01 9.457117e-03 0.000000e+00
 3.878520e-01 -9.995129e-02 0.000000e+00
 1.350213e-01 -4.495673e-02 0.000000e+00
 3.805341e-01 -1.096816e-01 0.000000e+00
 2.737529e-03 -3.155788e-01 0.000000e+00
 1.210107e-02 -4.777186e-01 0.000000e+00
 2.178343e-02 -4.481162e-02 0.000000e+00
 3.326158e-03 -3.039201e-01 0.000000e+00
 2.675001e-01 -9.577620e-03 0.000000e+00
 2.734296e-01 -3.984101e-01 0.000000e+00
 3.667610e-01 -6.585865e-03 0.000000e+00
 2.760336e-01 -2.861201e-02 0.000000e+00
 3.705577e-02 -2.384095e-01 0.000000e+00
 5.352442e-03 -4.846461e-01 0.000000e+00
 8.562893e-02 -4.555260e-01 0.000000e+00
 3.566836e-02 -3.053485e-01 0.000000e+00
 1.410592e-01 -3.145733e-01 0.000000e+00
 3.347674e-02 -1.199305e-01 0.000000e+00
 4.588253e-01 -2.577963e-02 0.000000e+00
 4.633983e-01 -8.232551e-02 0.000000e+00
 3.029137e-01 -1.828239e-01 0.000000e+00
 5.999683e-02 -4.803677e-01 0.000000e+00
 2.369228e-02 -4.843302e-01 0.000000e+00
 4.930686e-01 2.978231e-03 0.000000e+00
 4.859448e-01 6.960654e-03 0.000000e+00
 3.019293e-01 2.786473e-03 0.000000e+00
 3.271619e-01 1.070056e-02 0.000000e+00
 1.951085e-01 -1.483614e-01 0.000000e+00
 7.345475e-02 -4.223825e-01 0.000000e+00
 4.688439e-02 -2.747283e-02 0.000000e+00
 1.010529e-02 -4.026592e-01 0.000000e+00
 2.165882e-02 -3.417442e-01 0.000000e+00
 1.546611e-01 -2.028446e-02 0.000000e+00
 1.014610e-02 -2.960547e-01 0.000000e+00
 2.616080e-02 -4.198304e-01 0.000000e+00
 4.435538e-01 5.557819e-03 0.000000e+00
 3.049295e-03 -4.329437e-01 0.000000e+00
 1.406503e-03 -2.930285e-01 0.000000e+00
 9.808088e-03 -4.331487e-01 0.000000e+00
 1.696183e-01 -4.230079e-01 0.000000e+00
 1.225630e-01 -2.070615e-01 0.000000e+00
 3.708386e-01 -3.534419e-01 0.000000e+00
 2.628363e-01 6.992464e-03 0.000000e+00
 4.898609e-01 -1.086486e-01 0.000000e+00
 4.585704e-01 1.400288e-02 0.000000e+00
 4.630946e-01 -3.395482e-02 0.000000e+00
 3.318865e-01 -2.948171e-01 0.000000e+00
 4.792727e-01 -1.006801e-02 0.000000e+00
 1.817112e-02 -1.344351e-01 0.000000e+00
 2.243387e-01 9.406615e-03 0.000000e+00
 5.643383e-02 -3.957067e-01 0.000000e+00
 3.143795e-01 8.332066e-04 0.000000e+00
 4.707042e-02 -4.318997e-01 0.000000e+00
 8.202769e-02 -2.976833e-01 0.000000e+00
 3.512274e-03 -2.280995e-01 0.000000e+00
 2.817338e-01 4.214892e-03 0.000000e+00
 8.007317e-03 -2.866299e-01 0.000000e+00
 1.075848e-02 -1.619088e-01 0.000000e+00
 9.265778e-03 -1.892472e-01 0.000000e+00
 2.139261e-02 -4.721057e-01 0.000000e+00
 3.468695e-02 -4.822372e-01 0.000000e+00
 4.821533e-01 -6.984380e-03 0.000000e+00
 5.925960e-03 -1.917405e-01 0.000000e+00
 2.047688e-02 -4.598789e-01 0.000000e+00
 2.047181e-01 -2.469443e-02 0.000000e+00
 6.824157e-03 -4.495011e-01 0.000000e+00
 2.129727e-01 -4.663735e-01 0.000000e+00
 2.300130e-01 -3.457240e-01 0.000000e+00
 2.998256e-01 2.432200e-03 0.000000e+00
 3.898023e-01 -1.969863e-01 0.000000e+00
 4.830289e-01 3.537235e-03 0.000000e+00
 1.718926e-01 2.758584e-03 0.000000e+00
 4.457919e-01 -1.490282e-01 0.000000e+00
 1.554138e-01 6.589803e-04 0.000000e+00
 1.542149e-01 4.389760e-04 0.000000e+00
 0.000000e+00 0.000000e+00 0.000000e+00
 1.912740e-01 -1.924423e-02 0.000000e+00
 2.660057e-01 -1.294204e-01 0.000000e+00
 0.000000e+00 0.000000e+00 0.000000e+00
 2.562826e-03 -4.857612e-03 0.000000e+00
 4.174468e-05 -3.651783e-05 0.000000e+00
 0.000000e+00 0.000000e+00 0.000000e+00
 4.082810e-01 -2.346072e-01 0.000000e+00
 2.995507e-01 -3.298967e-01 0.000000e+00
 4.253356e-04 -1.500352e-01 0.000000e+00
 3.968925e-04 -1.491108e-01 0.000000e+00
 0.000000e+00 0.000000e+00 0.000000e+00
 8.871138e-04 -2.793033e-01 0.000000e+00
 2.202062e-04 -9.937722e-02 0.000000e+00
 5.712472e-04 -2.083220e-01 0.000000e+00
 1.718497e-04 -9.884200e-02 0.000000e+00
 0.000000e+00 0.000000e+00 0.000000e+00
 8.317590e-04 -2.442740e-01 0.000000e+00
 4.833359e-04 -1.654827e-01 0.000000e+00
 2.312003e-02 -1.761795e-02 0.000000e+00
 1.792275e-02 -7.244526e-03 0.000000e+00
 5.336556e-03 -3.072830e-03 0.000000e+00
 1.260200e-03 -1.726344e-01 0.000000e+00
 8.115882e-04 -1.746352e-01 0.000000e+00
 0.000000e+00 0.000000e+00 0.000000e+00
 3.645809e-02 -9.430044e-03 0.000000e+00
 0.000000e+00 0.000000e+00 0.000000e+00
 0.000000e+00 0.000000e+00 0.000000e+00
 1.515031e-01 -3.222595e-02 0.000000e+00
 8.186875e-02 -6.435271e-03 0.000000e+00
 9.527191e-02 -1.408759e-02 0.000000e+00
 3.576371e-03 -2.682071e-01 0.000000e+00
 9.749608e-04 -1.244788e-01 0.000000e+00
 1.356861e-03 -1.213490e-01 0.000000e+00
 0.000000e+00 0.000000e+00 0.000000e+00
 3.651158e-02 -4.024052e-02 0.000000e+00
 1.513824e-02 -2.316666e-02 0.000000e+00
 6.915403e-02 -1.380142e-02 0.000000e+00
 0.000000e+00 0.000000e+00 0.000000e+00
 9.916186e-02 -5.902643e-03 0.000000e+00
 0.000000e+00 0.000000e+00 0.000000e+00
 1.784476e-01 -7.566453e-03 0.000000e+00
 1.606199e-01 -9.584102e-03 0.000000e+00
 0.000000e+00 0.000000e+00 0.000000e+00
 3.443636e-01 -6.528784e-02 0.000000e+00
 2.783143e-01 -5.095869e-02 0.000000e+00
 3.211670e-01 -9.686109e-02 0.000000e+00
 1.595392e-01 -1.747525e-03 0.000000e+00
 1.520282e-01 -3.213060e-03 0.000000e+00
 0.000000e+00 0.000000e+00 0.000000e+00
 3.217227e-01 -9.125476e-03 0.000000e+00
 2.273660e-01 -1.980193e-03 0.000000e+00
 2.361288e-01 2.364300e-03 0.000000e+00
 1.568207e-01 1.512211e-03 0.000000e+00
 9.572599e-02 5.527309e-04 0.000000e+00
 8.264290e-03 -2.468899e-01 0.000000e+00
 1.578352e-03 -1.050931e-01 0.000000e+00
 3.085316e-03 -1.691340e-01 0.000000e+00
 1.972047e-03 -9.975755e-02 0.000000e+00
 0.000000e+00 0.000000e+00 0.000000e+00
 1.836358e-01 -3.324178e-01 0.000000e+00
 2.286658e-01 -2.998939e-01 0.000000e+00
 1.805616e-01 -2.899022e-01 0.000000e+00
 2.591358e-02 -2.681234e-01 0.000000e+00
 7.855141e-02 -3.261762e-01 0.000000e+00
 0.000000e+00 0.000000e+00 0.000000e+00
 3.937486e-02 -3.794526e-01 0.000000e+00
 1.079055e-02 -2.122189e-01 0.000000e+00
 1.307710e-02 -3.125325e-01 0.000000e+00
 3.211459e-03 -1.633331e-01 0.000000e+00
 5.904435e-03 -1.946920e-01 0.000000e+00
 2.003504e-03 -1.570359e-01 0.000000e+00
 0.000000e+00 0.000000e+00 0.000000e+00
 2.854576e-03 -4.561260e-01 0.000000e+00
 2.129139e-03 -4.026973e-01 0.000000e+00
 2.011923e-03 -4.288572e-01 0.000000e+00
 2.302204e-01 3.646950e-03 0.000000e+00
 9.065545e-02 8.360914e-04 0.000000e+00
 2.778834e-01 1.905203e-03 0.000000e+00
 9.703354e-02 4.050997e-04 0.000000e+00
 2.080642e-01 1.047465e-03 0.000000e+00
 3.441502e-01 -1.888272e-03 0.000000e+00
 1.838122e-01 8.608193e-04 0.000000e+00
 2.304274e-01 -9.445331e-05 0.000000e+00
 2.796521e-01 1.064003e-02 0.000000e+00
 1.200755e-01 3.411729e-03 0.000000e+00
 1.852095e-01 4.722911e-03 0.000000e+00
 3.075999e-01 1.913184e-03 0.000000e+00
 1.727469e-01 8.942990e-04 0.000000e+00
 0.000000e+00 0.000000e+00 0.000000e+00
 1.121055e-01 4.240141e-03 0.000000e+00
 0.000000e+00 0.000000e+00 0.000000e+00
 3.025541e-03 -9.558533e-02 0.000000e+00
 2.594757e-03 -1.036737e-01 0.000000e+00
 0.000000e+00 0.000000e+00 0.000000e+00
 2.052382e-02 -2.575101e-01 0.000000e+00
 1.783070e-02 -2.759000e-01 0.000000e+00
 3.094516e-02 -3.270172e-01 0.000000e+00
 8.048453e-04 -1.805672e-01 0.000000e+00
 1.402264e-03 -1.827741e-01 0.000000e+00
 0.000000e+00 0.000000e+00 0.000000e+00
 2.746651e-02 -1.860258e-01 0.000000e+00
 5.135676e-03 -7.730273e-02 0.000000e+00
 1.085670e-02 -1.311425e-01 0.000000e+00
 4.795382e-01 6.333725e-03 0.000000e+00
 4.843968e-01 4.757060e-03 0.000000e+00
 4.679459e-01 4.245151e-03 0.000000e+00
 1.259434e-01 4.786820e-03 0.000000e+00
 1.299332e-01 5.829695e-03 0.000000e+00
 0.000000e+00 0.000000e+00 0.000000e+00
 5.139988e-03 -6.414663e-02 0.000000e+00
 0.000000e+00 0.000000e+00 0.000000e+00
 9.235213e-03 -5.448738e-02 0.000000e+00
 9.305785e-03 -7.234430e-02 0.000000e+00
 0.000000e+00 0.000000e+00 0.000000e+00
 3.242387e-03 -4.829751e-01 0.000000e+00
 3.255297e-03 -4.816414e-01 0.000000e+00
 2.721810e-03 -4.840817e-01 0.000000e+00
 1.984159e-03 -4.059836e-01 0.000000e+00
 2.668799e-03 -4.636544e-01 0.000000e+00
 2.206945e-03 -4.483883e-01 0.000000e+00
 3.281520e-01 1.582458e-03 0.000000e+00
 2.247728e-01 6.506307e-04 0.000000e+00
 1.713442e-01 9.738302e-04 0.000000e+00
 1.734117e-01 1.148604e-03 0.000000e+00
 0.000000e+00 0.000000e+00 0.000000e+00
 4.946634e-01 -4.824919e-03 0.000000e+00
 4.925231e-01 -2.104664e-02 0.000000e+00
 4.977694e-01 -1.149215e-02 0.000000e+00
 4.810744e-01 5.391202e-03 0.000000e+00
 4.846878e-01 3.923839e-03 0.000000e+00
 2.060952e-03 -3.704955e-01 0.000000e+00
 1.285303e-03 -3.260820e-01 0.000000e+00
 7.137282e-04 -2.252826e-01 0.000000e+00
 2.476948e-01 -1.677569e-01 0.000000e+00
 2.101224e-01 -2.002639e-01 0.000000e+00
 2.641302e-01 -2.217718e-01 0.000000e+00
 1.594007e-01 -1.815510e-01 0.000000e+00
 1.700394e-01 -2.336477e-01 0.000000e+00
 6.432012e-02 -4.463282e-01 0.000000e+00
 4.623598e-02 -4.573469e-01 0.000000e+00
 6.138621e-02 -4.682412e-01 0.000000e+00
 3.882496e-01 3.343018e-03 0.000000e+00
 4.171268e-01 3.028390e-03 0.000000e+00
 4.726262e-01 -1.537831e-02 0.000000e+00
 4.957306e-01 -2.142267e-02 0.000000e+00
 4.927273e-01 -3.369893e-02 0.000000e+00
 4.083740e-01 5.273463e-03 0.000000e+00
 4.603576e-01 6.256035e-03 0.000000e+00
 4.308101e-01 3.784427e-03 0.000000e+00
 2.904614e-02 -4.844392e-01 0.000000e+00
 3.988815e-02 -4.838704e-01 0.000000e+00
 3.229200e-02 -4.813622e-01 0.000000e+00
 3.156021e-03 -3.859689e-01 0.000000e+00
 1.656589e-03 -2.932945e-01 0.000000e+00
 4.745950e-01 -1.347190e-01 0.000000e+00
 4.488516e-01 -1.848388e-01 0.000000e+00
 4.740738e-01 -1.629335e-01 0.000000e+00
 5.559676e-03 -1.561459e-02 0.000000e+00
 6.354428e-03 -2.929594e-02 0.000000e+00
 0.000000e+00 0.000000e+00 0.000000e+00
 4.464456e-01 2.562785e-03 0.000000e+00
 7.373358e-02 -1.709893e-01 0.000000e+00
 1.089133e-01 -1.550045e-01 0.000000e+00
 6.185308e-02 -1.223799e-01 0.000000e+00
 4.818160e-01 -9.870361e-02 0.000000e+00
 4.969638e-01 -6.522889e-02 0.000000e+00
 4.880800e-01 -6.035754e-02 0.000000e+00
 4.261298e-01 -1.004092e-01 0.000000e+00
 4.374202e-01 -6.215250e-02 0.000000e+00
 3.981571e-01 -7.223713e-02 0.000000e+00
 2.734663e-03 -3.836596e-01 0.000000e+00
 1.278837e-03 -3.230351e-01 0.000000e+00
 6.414433e-03 -4.760111e-01 0.000000e+00
 9.715227e-03 -4.682324e-01 0.000000e+00
 8.681576e-03 -4.829414e-01 0.000000e+00
 2.380975e-02 -4.428151e-01 0.000000e+00
 2.995793e-02 -4.689973e-01 0.000000e+00
 3.496122e-02 -4.543477e-01 0.000000e+00
 3.729721e-02 -2.730187e-01 0.000000e+00
 5.876629e-02 -3.443926e-01 0.000000e+00
 6.246803e-02 -3.101496e-01 0.000000e+00
 1.223453e-01 -4.450540e-01 0.000000e+00
 1.262185e-01 -3.985003e-01 0.000000e+00
 9.170986e-02 -4.165050e-01 0.000000e+00
 2.924222e-01 -4.260904e-01 0.000000e+00
 1.994894e-01 -4.110109e-01 0.000000e+00
 2.896346e-01 2.229443e-03 0.000000e+00
 0.000000e+00 0.000000e+00 0.000000e+00
 3.859785e-01 7.510171e-03 0.000000e+00
 3.187936e-01 3.256229e-03 0.000000e+00
 4.470331e-01 6.147475e-03 0.000000e+00
 4.794264e-01 7.362416e-03 0.000000e+00
 4.795428e-01 7.656990e-03 0.000000e+00
 4.700683e-02 -3.554868e-01 0.000000e+00
 7.115759e-02 -3.837660e-01 0.000000e+00
 1.444425e-02 -4.487489e-01 0.000000e+00
 1.626901e-02 -4.304785e-01 0.000000e+00
 1.092403e-02 -4.109442e-01 0.000000e+00
 7.784443e-02 -4.805187e-01 0.000000e+00
 8.723517e-02 -4.835979e-01 0.000000e+00
 1.057366e-01 -4.716770e-01 0.000000e+00
 4.758831e-01 8.546032e-03 0.000000e+00
 4.873266e-01 8.947599e-03 0.000000e+00
 4.783943e-01 1.102212e-02 0.000000e+00
 4.397221e-01 -9.965048e-03 0.000000e+00
 4.593969e-01 -3.332187e-03 0.000000e+00
 4.002458e-01 -2.814876e-03 0.000000e+00
 4.796017e-01 1.071074e-02 0.000000e+00
 4.826908e-01 1.188221e-02 0.000000e+00
 4.913436e-01 8.861926e-03 0.000000e+00
 3.462473e-01 -1.927836e-01 0.000000e+00
 3.879789e-01 -1.503517e-01 0.000000e+00
 3.461698e-01 -1.473898e-01 0.000000e+00
 4.682592e-01 -1.179727e-01 0.000000e+00
 4.559269e-01 -1.891171e-01 0.000000e+00
 1.729007e-01 -9.351164e-02 0.000000e+00
 2.325769e-01 -1.134609e-01 0.000000e+00
 1.964016e-01 -6.227791e-02 0.000000e+00
 1.795794e-01 -2.268611e-02 0.000000e+00
 1.242296e-01 -7.136076e-03 0.000000e+00
 1.340779e-01 -2.606484e-01 0.000000e+00
 9.435646e-02 -2.252264e-01 0.000000e+00
 1.033957e-01 -2.777068e-01 0.000000e+00
 4.657373e-01 -5.508152e-02 0.000000e+00
 4.357070e-01 -3.984955e-02 0.000000e+00
 8.346657e-03 -4.835270e-01 0.000000e+00
 1.315596e-02 -4.847425e-01 0.000000e+00
 1.572359e-02 -4.467430e-01 0.000000e+00
 1.696730e-02 -4.761191e-01 0.000000e+00
 1.262034e-02 -4.557903e-01 0.000000e+00
 1.794867e-02 -3.708274e-01 0.000000e+00
 2.707182e-02 -3.868225e-01 0.000000e+00
 1.690039e-02 -3.253021e-01 0.000000e+00
 5.162486e-03 -4.752544e-01 0.000000e+00
 8.737979e-02 -3.751778e-02 0.000000e+00
 7.283399e-02 -6.287835e-02 0.000000e+00
 1.212570e-01 -7.748462e-02 0.000000e+00
 2.801710e-02 -7.977866e-02 0.000000e+00
 5.282436e-02 -7.717650e-02 0.000000e+00
 6.397360e-03 -3.833819e-01 0.000000e+00
 6.582114e-03 -3.490931e-01 0.000000e+00
 1.130962e-02 -4.614169e-01 0.000000e+00
 6.590739e-03 -4.360753e-01 0.000000e+00
 7.503414e-03 -4.635963e-01 0.000000e+00
 4.732228e-01 -2.093456e-02 0.000000e+00
 4.296040e-01 -1.761344e-02 0.000000e+00
 2.778315e-01 -1.796777e-02 0.000000e+00
 3.447900e-01 -3.765997e-02 0.000000e+00
 3.512280e-01 -2.354188e-02 0.000000e+00
 6.927428e-02 -4.635154e-01 0.000000e+00
 1.082320e-01 -4.754932e-01 0.000000e+00
 4.185742e-01 -2.868364e-01 0.000000e+00
 1.711214e-01 1.149036e-03 0.000000e+00
 0.000000e+00 0.000000e+00 0.000000e+00
 3.938844e-01 -1.997014e-02 0.000000e+00
 1.097113e-01 -3.098446e-01 0.000000e+00
 8.579539e-02 -3.329548e-01 0.000000e+00
 1.138532e-01 -3.452174e-01 0.000000e+00
 2.537322e-02 -1.311795e-01 0.000000e+00
 4.030209e-02 -1.910952e-01 0.000000e+00
 5.062980e-02 -1.749836e-01 0.000000e+00
 8.576719e-03 -4.292601e-01 0.000000e+00
 4.889613e-03 -3.995864e-01 0.000000e+00
 5.470288e-03 -3.631811e-01 0.000000e+00
 2.801691e-01 -3.260087e-01 0.000000e+00
 2.533320e-01 -3.729557e-01 0.000000e+00
 3.091794e-01 -3.483834e-01 0.000000e+00
 3.551285e-02 -4.276172e-01 0.000000e+00
 3.704497e-02 -3.963855e-01 0.000000e+00
 3.425350e-03 -7.671237e-02 0.000000e+00
 3.156920e-03 -8.661418e-02 0.000000e+00
 0.000000e+00 0.000000e+00 0.000000e+00
 5.221601e-02 -4.153103e-01 0.000000e+00
 7.200186e-02 -4.298523e-01 0.000000e+00
 2.018994e-01 -3.885260e-01 0.000000e+00
 1.610032e-01 -3.700358e-01 0.000000e+00
 5.818278e-02 -2.738285e-01 0.000000e+00
 7.599005e-02 -2.653857e-01 0.000000e+00
 5.170647e-02 -2.405171e-01 0.000000e+00
 4.677146e-01 5.245096e-03 0.000000e+00
 4.888936e-01 7.670556e-03 0.000000e+00
 3.818815e-01 -5.398319e-03 0.000000e+00
 3.544921e-01 1.040022e-02 0.000000e+00
 4.363936e-01 5.334049e-04 0.000000e+00
 4.201003e-01 -1.746756e-01 0.000000e+00
 4.144149e-01 -1.312717e-01 0.000000e+00
 4.858488e-01 -6.575448e-02 0.000000e+00
 4.285980e-01 -5.563659e-02 0.000000e+00
 2.863221e-01 -1.271044e-01 0.000000e+00
 3.617661e-01 -3.343294e-01 0.000000e+00
 3.224881e-01 -3.918018e-01 0.000000e+00
 0.000000e+00 0.000000e+00 0.000000e+00
 5.295817e-02 -4.838079e-01 0.000000e+00
 4.544864e-02 -4.809698e-01 0.000000e+00
 3.095315e-02 -4.692124e-01 0.000000e+00
 3.987257e-02 -4.649332e-01 0.000000e+00
 1.729901e-02 -4.822295e-01 0.000000e+00
 1.804534e-02 -4.839962e-01 0.000000e+00
 4.087747e-01 1.425531e-02 0.000000e+00
 4.413563e-01 1.421135e-02 0.000000e+00
 3.744439e-01 1.494264e-02 0.000000e+00
 4.893829e-01 -8.180889e-04 0.000000e+00
 4.560177e-01 4.948464e-03 0.000000e+00
 4.714488e-01 7.213156e-03 0.000000e+00
 3.893860e-01 4.555319e-03 0.000000e+00
 3.962330e-01 4.337482e-03 0.000000e+00
 2.411366e-01 1.056106e-02 0.000000e+00
 3.365537e-01 1.398534e-02 0.000000e+00
 4.518091e-01 1.267042e-02 0.000000e+00
 1.419803e-01 -1.296783e-01 0.000000e+00
 1.391898e-01 -4.643656e-01 0.000000e+00
 1.611251e-01 -4.783127e-01 0.000000e+00
 9.696976e-03 -3.538986e-01 0.000000e+00
 1.628128e-02 -3.809493e-01 0.000000e+00
 1.620803e-02 -4.215889e-01 0.000000e+00
 3.689397e-03 -2.540470e-01 0.000000e+00
 4.338615e-02 -4.424917e-01 0.000000e+00
 2.510539e-02 -4.013044e-01 0.000000e+00
 2.167318e-01 -4.626714e-02 0.000000e+00
 2.406386e-01 -2.730047e-02 0.000000e+00
 2.425113e-01 -4.854900e-02 0.000000e+00
 7.536644e-03 -1.915197e-01 0.000000e+00
 1.451010e-02 -2.813356e-01 0.000000e+00
 6.216551e-03 -2.654810e-01 0.000000e+00
 7.290920e-03 -3.185615e-01 0.000000e+00
 1.137024e-02 -3.438485e-01 0.000000e+00
 2.281749e-02 -4.768854e-01 0.000000e+00
 1.615330e-02 -4.704549e-01 0.000000e+00
 1.780079e-02 -4.046008e-01 0.000000e+00
 4.820684e-01 -1.932948e-03 0.000000e+00
 4.624251e-01 1.716451e-03 0.000000e+00
 3.890512e-01 3.982634e-03 0.000000e+00
 3.753752e-01 2.564821e-03 0.000000e+00
 4.359316e-01 3.832431e-03 0.000000e+00
 4.572842e-03 -4.415007e-01 0.000000e+00
 4.313785e-03 -4.724961e-01 0.000000e+00
 2.152918e-03 -2.989760e-01 0.000000e+00
 4.249616e-03 -3.867612e-01 0.000000e+00
 1.532835e-01 -4.604357e-01 0.000000e+00
 1.977286e-01 -4.525443e-01 0.000000e+00
 2.527610e-01 -4.389274e-01 0.000000e+00
 2.176143e-01 -4.164653e-01 0.000000e+00
 3.171132e-01 -2.127061e-02 0.000000e+00
 4.572734e-01 -1.130262e-01 0.000000e+00
 4.006013e-01 1.095346e-02 0.000000e+00
 4.869868e-01 -3.768892e-02 0.000000e+00
 3.203592e-01 -2.367020e-01 0.000000e+00
 2.744922e-01 -2.782393e-01 0.000000e+00