<?xml version="1.0"?>
<VTKFile type="UnstructuredGrid"  version="0.1"  >
<UnstructuredGrid>
<Piece  NumberOfPoints="505" NumberOfCells="928">
<Points>
<DataArray  type="Float32"  NumberOfComponents="3"  format="ascii">
0 0 0
1 0 0
0 1 0
1 0.5 0
0.5 0.5 0
0.5 1 0
0.1 0 0
0.2 0 0
0.3 0 0
0.4 0 0
0.5 0 0
0.6 0 0
0.7 0 0
0.8 0 0
0.9 0 0
0 0.9 0
0 0.8 0
0 0.7 0
0 0.6 0
0 0.5 0
0 0.4 0
0 0.3 0
0 0.2 0
0 0.1 0
0.9 0.5 0
0.8 0.5 0
0.7 0.5 0
0.6 0.5 0
0.5 0.6 0
0.5 0.7 0
0.5 0.8 0
0.5 0.9 0
0.1 1 0
0.2 1 0
0.3 1 0
0.4 1 0
1 0.1 0
1 0.2 0
1 0.3 0
1 0.4 0
0.300178 0.296564 0
0.247566 0.664879 0
0.639694 0.259804 0
0.06564 0.06472 0
0.04439 0.954144 0
0.932418 0.064715 0
0.951013 0.456419 0
0.437622 0.939659 0
0.195334 0.464441 0
0.483382 0.329596 0
0.834786 0.236295 0
0.307228 0.81139 0
0.178229 0.173372 0
0.366998 0.134199 0
0.547485 0.14214 0
0.124832 0.74927 0
0.160163 0.896658 0
0.342556 0.535243 0
0.147651 0.342018 0
0.729803 0.127878 0
0.725981 0.357775 0
0.121369 0.600441 0
0.372954 0.70814 0
0.908503 0.151525 0
0.89851 0.333305 0
0.556275 0.400898 0
0.259184 0.092178 0
0.46329 0.194362 0
0.423773 0.869712 0
0.22823 0.818162 0
0.081292 0.144905 0
0.082979 0.831935 0
0.549999 0.065419 0
0.371537 0.407588 0
0.642628 0.097865 0
0.459835 0.086595 0
0.108565 0.418567 0
0.273082 0.902112 0
0.256598 0.556659 0
0.11951 0.509541 0
0.234147 0.370527 0
0.097453 0.253261 0
0.638438 0.342389 0
0.554656 0.224779 0
0.373432 0.237603 0
0.339663 0.62579 0
0.27079 0.747786 0
0.733958 0.266592 0
0.928527 0.244458 0
0.853116 0.071497 0
0.818426 0.404817 0
0.280194 0.200604 0
0.417859 0.565185 0
0.147241 0.079056 0
0.389149 0.789957 0
0.42808 0.654642 0
0.343469 0.059202 0
0.086765 0.684153 0
0.162043 0.675011 0
0.809252 0.14201 0
0.364337 0.928607 0
0.077532 0.916553 0
0.159064 0.807906 0
0.302124 0.454032 0
0.205909 0.272176 0
0.449664 0.407415 0
0.66041 0.423241 0
0.562201 0.303789 0
0.802658 0.320211 0
0.614551 0.182931 0
0.390944 0.331035 0
0.687136 0.18846 0
0.070577 0.342498 0
0.741087 0.437361 0
0.176989 0.547528 0
0.710251 0.07409 0
0.192845 0.608574 0
0.171114 0.398277 0
0.058959 0.753084 0
0.904 0.425508 0
0.438039 0.730373 0
0.057223 0.475897 0
0.058502 0.552106 0
0.330493 0.750997 0
0.312295 0.699131 0
0.684882 0.307111 0
0.053312 0.627311 0
0.198798 0.743695 0
0.392326 0.069953 0
0.351519 0.860283 0
0.397134 0.477694 0
0.319385 0.371198 0
0.767351 0.069505 0
0.441954 0.271171 0
0.759504 0.192785 0
0.855661 0.457701 0
0.500847 0.264652 0
0.916209 0.0323575 0
0.966209 0.0323575 0
0.95 0 0
0.578137 0.450449 0
0.528137 0.450449 0
0.55 0.5 0
0.03282 0.08236 0
0.03282 0.03236 0
0 0.05 0
0.502969 0.404157 0
0.474832 0.453708 0
0.468811 0.91983 0
0.468811 0.96983 0
0.5 0.95 0
0.072195 0.977072 0
0.022195 0.977072 0
0.05 1 0
0.022195 0.927072 0
0 0.95 0
0.060961 0.935348 0
0.038766 0.908276 0
0.106441 0.071888 0
0.123621 0.039528 0
0.08282 0.03236 0
0.0414895 0.815967 0
0.0414895 0.865968 0
0 0.85 0
0.173621 0.039528 0
0.15 0 0
0.05 0 0
0.301327 0.07569 0
0.321735 0.029601 0
0.279592 0.046089 0
0.070969 0.792509 0
0.0294795 0.776542 0
0.0294795 0.726542 0
0 0.75 0
0.114267 0.111981 0
0.073466 0.104813 0
0.229592 0.046089 0
0.25 0 0
0.371735 0.029601 0
0.35 0 0
0.479917 0.0432975 0
0.429918 0.0432975 0
0.45 0 0
0.461562 0.140479 0
0.413416 0.110397 0
0.415144 0.16428 0
0.574999 0.0327095 0
0.525 0.0327095 0
0.55 0 0
0.596313 0.081642 0
0.621314 0.0489325 0
0.927507 0.440964 0
0.902 0.462754 0
0.925507 0.47821 0
0.0700385 0.655732 0
0.026656 0.663655 0
0.0433825 0.692076 0
0.026656 0.613655 0
0 0.65 0
0.276766 0.370862 0
0.309781 0.333881 0
0.267162 0.333545 0
0.458929 0.582593 0
0.458929 0.532593 0
0.5 0.55 0
0.422969 0.609913 0
0.46404 0.627321 0
0.43306 0.692508 0
0.46902 0.715186 0
0.46404 0.677321 0
0.46902 0.765186 0
0.5 0.75 0
0.180082 0.948329 0
0.130082 0.948329 0
0.15 1 0
0.87983 0.441605 0
0.87783 0.478851 0
0.975507 0.42821 0
0.975507 0.47821 0
1 0.45 0
0.676439 0.0859775 0
0.705125 0.037045 0
0.671314 0.0489325 0
0.779756 0.421089 0
0.770544 0.46868 0
0.809213 0.452408 0
0.738801 0.0717975 0
0.733675 0.0347525 0
0.95 0.5 0
0.720544 0.46868 0
0.75 0.5 0
0.029251 0.526053 0
0.029251 0.576053 0
0 0.55 0
0.089006 0.530824 0
0.0899355 0.576273 0
0.12044 0.554991 0
0.461886 0.884856 0
0.461886 0.834856 0
0.5 0.85 0
0.089571 0.380533 0
0.0352885 0.371249 0
0.0542825 0.409284 0
0.918515 0.197991 0
0.964263 0.222229 0
0.954252 0.175762 0
0.630205 0.46162 0
0.680205 0.46162 0
0.65 0.5 0
0.0352885 0.321249 0
0 0.35 0
0.0487265 0.226631 0
0.0487265 0.276631 0
0 0.25 0
0.286541 0.951056 0
0.236541 0.951056 0
0.25 1 0
0.382169 0.964303 0
0.332168 0.964303 0
0.35 1 0
0.966209 0.0823575 0
1 0.05 0
0.876558 0.0357485 0
0.826558 0.0357485 0
0.85 0 0
0.710547 0.227526 0
0.663415 0.224132 0
0.686826 0.263198 0
0.964263 0.272229 0
1 0.25 0
0.40098 0.934133 0
0.418811 0.96983 0
0.45 1 0
0.326813 0.219104 0
0.290186 0.248584 0
0.336805 0.267084 0
0.243052 0.23639 0
0.253043 0.28437 0
0.224721 0.582616 0
0.220205 0.636726 0
0.252082 0.610769 0
0.92046 0.10812 0
0.954252 0.125762 0
0.66166 0.32475 0
0.662288 0.283458 0
0.639066 0.301096 0
0.949255 0.366653 0
0.949255 0.316653 0
1 0.35 0
0.291542 0.723459 0
0.27993 0.682005 0
0.259178 0.706333 0
0.394055 0.89916 0
0.430698 0.904686 0
0.531524 0.28422 0
0.492115 0.297124 0
0.522791 0.316692 0
0.040646 0.122453 0
0.040646 0.172453 0
0 0.15 0
1 0.15 0
0.151681 0.262718 0
0.192069 0.222774 0
0.137841 0.213317 0
0.558428 0.264284 0
0.600947 0.281797 0
0.597175 0.242291 0
0.508973 0.20957 0
0.551071 0.183459 0
0.505387 0.168251 0
0.118847 0.906605 0
0.088766 0.958276 0
0.3123 0.881198 0
0.329373 0.835836 0
0.290155 0.856751 0
0.18042 0.709353 0
0.223182 0.704287 0
0.204805 0.669945 0
0.114037 0.464054 0
0.157422 0.486991 0
0.15195 0.441504 0
0.279361 0.505346 0
0.248729 0.459236 0
0.225966 0.51055 0
0.423399 0.442555 0
0.448567 0.488847 0
0.892767 0.068106 0
0.65 0 0
0.901255 0.379406 0
0.952 0.412754 0
0.858877 0.146767 0
0.822019 0.189153 0
0.871644 0.19391 0
0.14825 0.528535 0
0.186162 0.505985 0
0.178931 0.775801 0
0.161815 0.746482 0
0.141948 0.778588 0
0.29813 0.591225 0
0.34111 0.580516 0
0.299577 0.545951 0
0.913519 0.288882 0
0.881657 0.240376 0
0.866648 0.2848 0
0.664882 0.143162 0
0.708469 0.158169 0
0.686215 0.112871 0
0.768308 0.293401 0
0.818722 0.278253 0
0.784372 0.251443 0
0.407693 0.254387 0
0.452622 0.232766 0
0.418361 0.215983 0
0.559238 0.352343 0
0.519829 0.365247 0
0.269689 0.146391 0
0.323596 0.167402 0
0.313091 0.113188 0
0.367897 0.0645775 0
0.396163 0.0349765 0
0.220028 0.321352 0
0.17678 0.307097 0
0.190899 0.356272 0
0.584604 0.203855 0
0.581018 0.162535 0
0.250656 0.860137 0
0.267729 0.814776 0
0.359821 0.770477 0
0.31886 0.781193 0
0.348189 0.800674 0
0.124404 0.679582 0
0.141706 0.637726 0
0.104067 0.642297 0
0.216622 0.899385 0
0.203213 0.085617 0
0.162735 0.126214 0
0.218707 0.132775 0
0.0893725 0.199083 0
0.129761 0.159139 0
0.121022 0.819921 0
0.103905 0.790602 0
0.193647 0.813034 0
0.159614 0.852282 0
0.194196 0.85741 0
0.650843 0.185696 0
0.628589 0.140398 0
0.504917 0.076007 0
0.50366 0.114367 0
0.548742 0.103779 0
0.378761 0.595487 0
0.380208 0.550214 0
0.466523 0.368506 0
0.783675 0.0347525 0
0.75 0 0
0.595056 0.120002 0
0.20263 0.384402 0
0.183224 0.431359 0
0.214741 0.417484 0
0.084015 0.29788 0
0.109114 0.342258 0
0.122552 0.29764 0
0.370334 0.82512 0
0.387646 0.864998 0
0.406461 0.829835 0
0.355164 0.351116 0
0.345461 0.389393 0
0.38124 0.369312 0
0.177444 0.641792 0
0.157107 0.604507 0
0.0286115 0.437949 0
0.0286115 0.487949 0
0 0.45 0
0.184917 0.578051 0
0.216794 0.552094 0
0.310754 0.412615 0
0.268135 0.41228 0
0.13984 0.408422 0
0.159382 0.370147 0
0.128108 0.380293 0
0.784378 0.167398 0
0.797145 0.21454 0
0.649424 0.382815 0
0.693196 0.390508 0
0.682209 0.350082 0
0.471401 0.267911 0
0.482069 0.229507 0
0.600319 0.323089 0
0.597356 0.371644 0
0.370215 0.185901 0
0.420304 0.369225 0
0.410601 0.407502 0
0.5 0.65 0
0.293615 0.645334 0
0.325979 0.66246 0
0.342624 0.703635 0
0.356309 0.666965 0
0.24951 0.782974 0
0.289009 0.779588 0
0.810542 0.362514 0
0.76432 0.338993 0
0.772204 0.381296 0
0.70942 0.286852 0
0.705431 0.332443 0
0.729969 0.312184 0
0.831184 0.106754 0
0.88081 0.111511 0
0.700748 0.430301 0
0.733534 0.397568 0
0.850584 0.326758 0
0.229212 0.186988 0
0.407496 0.52144 0
0.369845 0.506468 0
0.413594 0.760165 0
0.405497 0.719256 0
0.381051 0.749049 0
0.444574 0.794979 0
0.383872 0.640216 0
0.400517 0.681391 0
0.355233 0.0967005 0
0.42608 0.078274 0
0.379662 0.102076 0
0.055907 0.589708 0
0.0873405 0.613876 0
0.072862 0.718619 0
0.0918955 0.751177 0
0.105798 0.716711 0
0.234794 0.74574 0
0.213514 0.780928 0
0.143437 0.712141 0
0.72332 0.190623 0
0.744653 0.160332 0
0.788301 0.105758 0
0.748577 0.0986915 0
0.769527 0.134944 0
0.357928 0.894445 0
0.318709 0.915359 0
0.0802555 0.874244 0
0.121571 0.864297 0
0.32234 0.494638 0
0.349629 0.465863 0
0.384335 0.442641 0
0.336831 0.43081 0
0.608343 0.412069 0
0.527752 0.244716 0
0.858468 0.369061 0
0.627123 0.221367 0
0.382188 0.284319 0
0.345561 0.3138 0
0.437163 0.330315 0
0.746731 0.229689 0
0.149179 0.573985 0
0.720027 0.100984 0
0.810234 0.070501 0
0.861213 0.415162 0
0.827831 0.478851 0
0.85 0.5 0
0.082894 0.447232 0
0.0883665 0.492719 0
0.0578625 0.514002 0
0.300642 0.749391 0
0.351723 0.729569 0
0.321394 0.725064 0
0.416449 0.301103 0
0.462668 0.300384 0
0.837044 0.431259 0
</DataArray>
</Points>
<Cells>
<DataArray  type="UInt32"  Name="connectivity"  format="ascii">
1 138 139 
14 137 139 
45 137 138 
137 138 139 
4 141 142 
27 140 142 
65 140 141 
140 141 142 
0 144 145 
23 143 145 
43 143 144 
143 144 145 
4 141 147 
65 141 146 
105 146 147 
141 146 147 
5 149 150 
31 148 150 
47 148 149 
148 149 150 
2 152 153 
32 151 153 
44 151 152 
151 152 153 
2 152 155 
15 154 155 
44 152 154 
152 154 155 
15 154 157 
44 154 156 
101 156 157 
154 156 157 
6 159 160 
43 158 160 
93 158 159 
158 159 160 
15 162 163 
16 161 163 
71 161 162 
161 162 163 
6 159 165 
7 164 165 
93 159 164 
159 164 165 
[...]
<PointData  Vectors="u"> 
<DataArray  type="Float32"  Name="u"  NumberOfComponents="3" format="ascii">
 0.000000e+00 0.000000e+00 0.000000e+00
 0.000000e+00 0.000000e+00 0.000000e+00
 0.000000e+00 0.000000e+00 0.000000e+00
 0.000000e+00 0.000000e+00 0.000000e+00
 0.000000e+00 0.000000e+00 0.000000e+00
 0.000000e+00 0.000000e+00 0.000000e+00
 0.000000e+00 0.000000e+00 0.000000e+00
 0.000000e+00 0.000000e+00 0.000000e+00
 0.000000e+00 0.000000e+00 0.000000e+00
 0.000000e+00 0.000000e+00 0.000000e+00
 0.000000e+00 0.000000e+00 0.000000e+00
 0.000000e+00 0.000000e+00 0.000000e+00
 0.000000e+00 0.000000e+00 0.000000e+00
 0.000000e+00 0.000000e+00 0.000000e+00
 0.000000e+00 0.000000e+00 0.000000e+00
 0.000000e+00 0.000000e+00 0.000000e+00
 0.000000e+00 0.000000e+00 0.000000e+00
 0.000000e+00 0.000000e+00 0.000000e+00
 0.000000e+00 0.000000e+00 0.000000e+00
 0.000000e+00 0.000000e+00 0.000000e+00
 0.000000e+00 0.000000e+00 0.000000e+00
 0.000000e+00 0.000000e+00 0.000000e+00
 0.000000e+00 0.000000e+00 0.000000e+00
 0.000000e+00 0.000000e+00 0.000000e+00
 0.000000e+00 0.000000e+00 0.000000e+00
 0.000000e+00 0.000000e+00 0.000000e+00
 0.000000e+00 0.000000e+00 0.000000e+00
 0.000000e+00 0.000000e+00 0.000000e+00
 0.000000e+00 0.000000e+00 0.000000e+00
 0.000000e+00 0.000000e+00 0.000000e+00
 0.000000e+00 0.000000e+00 0.000000e+00
 0.000000e+00 0.000000e+00 0.000000e+00
 -9.004995e-05 1.633978e-01 0.000000e+00
 -2.615471e-04 1.528490e-01 0.000000e+00
 -2.300885e-04 1.511650e-01 0.000000e+00
 -2.624806e-05 1.604670e-01 0.000000e+00
 -1.631353e-01 7.559941e-03 0.000000e+00
 -1.514991e-01 1.546540e-02 0.000000e+00
 -1.521327e-01 1.641996e-02 0.000000e+00
 -1.615228e-01 8.654954e-03 0.000000e+00
 -7.284502e-02 4.598844e-02 0.000000e+00
 -1.330036e-02 1.455765e-01 0.000000e+00
 -1.422469e-01 3.026326e-02 0.000000e+00
 -7.892285e-03 7.621009e-03 0.000000e+00
 -1.762474e-05 1.052822e-01 0.000000e+00
 -1.319618e-01 3.731832e-03 0.000000e+00
 -1.031903e-01 2.642694e-03 0.000000e+00
 8.681108e-06 1.300651e-01 0.000000e+00
 -3.543408e-02 1.171236e-01 0.000000e+00
 -1.714823e-01 5.724069e-02 0.000000e+00
 -1.416131e-01 2.066847e-02 0.000000e+00
 -2.783467e-03 1.544150e-01 0.000000e+00
 -4.968961e-02 4.163362e-02 0.000000e+00
 -8.614559e-02 1.213154e-02 0.000000e+00
 -1.087544e-01 1.539792e-02 0.000000e+00
 -3.269121e-03 1.646842e-01 0.000000e+00
 -1.042030e-03 1.633110e-01 0.000000e+00
 -5.812253e-02 1.771363e-01 0.000000e+00
 -3.005548e-02 9.590151e-02 0.000000e+00
 -1.372642e-01 1.364603e-02 0.000000e+00
 -1.955612e-01 2.009610e-02 0.000000e+00
 -9.400540e-03 1.534789e-01 0.000000e+00
 -3.238563e-03 1.720623e-01 0.000000e+00
 -1.577115e-01 1.216344e-02 0.000000e+00
 -1.671967e-01 1.505279e-02 0.000000e+00
 -2.324141e-01 4.141943e-02 0.000000e+00
 -6.519978e-02 1.162323e-02 0.000000e+00
 -9.742592e-02 2.024627e-02 0.000000e+00
 -1.344351e-04 1.454401e-01 0.000000e+00
 -3.286371e-03 1.469393e-01 0.000000e+00
 -1.722283e-02 3.360205e-02 0.000000e+00
 -7.536178e-04 1.522703e-01 0.000000e+00
 -8.868591e-02 4.663412e-03 0.000000e+00
 -1.312902e-01 1.168857e-01 0.000000e+00
 -1.185955e-01 9.652878e-03 0.000000e+00
 -8.944885e-02 6.444695e-03 0.000000e+00
 -1.666134e-02 1.185299e-01 0.000000e+00
 -1.205583e-03 1.466976e-01 0.000000e+00
 -3.420359e-02 1.388298e-01 0.000000e+00
 -1.460605e-02 1.392903e-01 0.000000e+00
 -5.362056e-02 8.007539e-02 0.000000e+00
 -1.952465e-02 7.220350e-02 0.000000e+00
 -1.994966e-01 2.901993e-02 0.000000e+00
 -1.178921e-01 2.751641e-02 0.000000e+00
 -8.571565e-02 2.674870e-02 0.000000e+00
 -1.770010e-02 1.749229e-01 0.000000e+00
 -6.003892e-03 1.479141e-01 0.000000e+00
 -1.476309e-01 2.662850e-02 0.000000e+00
 -1.442398e-01 1.714663e-02 0.000000e+00
 -1.315144e-01 4.132971e-03 0.000000e+00
 -1.786889e-01 8.909150e-03 0.000000e+00
 -7.003365e-02 2.840958e-02 0.000000e+00
 -2.818463e-02 1.784146e-01 0.000000e+00
 -3.328099e-02 1.445719e-02 0.000000e+00
 -9.672030e-04 1.659966e-01 0.000000e+00
 -8.172521e-04 1.467382e-01 0.000000e+00
 -6.260094e-02 3.867420e-03 0.000000e+00
 -3.021820e-03 1.496395e-01 0.000000e+00
 -8.435482e-03 1.565982e-01 0.000000e+00
 -1.480786e-01 1.354063e-02 0.000000e+00
 -3.250006e-04 1.655110e-01 0.000000e+00
 -1.972559e-04 1.487979e-01 0.000000e+00
 -2.742193e-03 1.623486e-01 0.000000e+00
 -7.680349e-02 1.210466e-01 0.000000e+00
 -4.917808e-02 6.082389e-02 0.000000e+00
 -2.035172e-01 1.163438e-01 0.000000e+00
 -1.926448e-01 1.181023e-02 0.000000e+00
 -1.682801e-01 3.821009e-02 0.000000e+00
 -1.700205e-01 2.028529e-02 0.000000e+00
 -1.186255e-01 2.264049e-02 0.000000e+00
 -1.215095e-01 6.259683e-02 0.000000e+00
 -1.282086e-01 2.309617e-02 0.000000e+00
 -9.710814e-03 8.654449e-02 0.000000e+00
 -1.585453e-01 5.833210e-03 0.000000e+00
 -2.197233e-02 1.392845e-01 0.000000e+00
 -1.165993e-01 5.819674e-03 0.000000e+00
 -1.691919e-02 1.449763e-01 0.000000e+00
 -3.374598e-02 1.052432e-01 0.000000e+00
 -8.221033e-04 1.256724e-01 0.000000e+00
 -1.519355e-01 5.286352e-03 0.000000e+00
 1.937723e-04 1.310422e-01 0.000000e+00
 -4.832271e-03 1.009204e-01 0.000000e+00
 -3.589853e-03 1.123475e-01 0.000000e+00
 -3.986531e-03 1.626796e-01 0.000000e+00
 -8.121189e-03 1.598409e-01 0.000000e+00
 -1.718402e-01 2.804015e-02 0.000000e+00
 -1.898956e-03 1.122571e-01 0.000000e+00
 -5.939265e-03 1.512160e-01 0.000000e+00
 -7.441337e-02 4.513756e-03 0.000000e+00
 -1.086383e-03 1.645120e-01 0.000000e+00
 -1.242583e-01 1.832168e-01 0.000000e+00
 -9.014624e-02 7.796893e-02 0.000000e+00
 -1.201379e-01 4.711246e-03 0.000000e+00
 -1.139085e-01 3.675656e-02 0.000000e+00
 -1.362537e-01 2.142952e-02 0.000000e+00
 -1.091749e-01 2.019716e-03 0.000000e+00
 -1.269596e-01 3.470522e-02 0.000000e+00
 -7.912706e-02 1.126033e-03 0.000000e+00
 -8.243557e-02 1.737193e-03 0.000000e+00
 0.000000e+00 0.000000e+00 0.000000e+00
 -1.737210e-01 1.552159e-02 0.000000e+00
 -2.000270e-01 5.033509e-02 0.000000e+00
 0.000000e+00 0.000000e+00 0.000000e+00
 -2.986664e-03 6.192889e-03 0.000000e+00
 -7.674009e-04 7.658973e-04 0.000000e+00
 0.000000e+00 0.000000e+00 0.000000e+00
 -2.330213e-01 7.805583e-02 0.000000e+00
 -2.035996e-01 1.266031e-01 0.000000e+00
 2.192580e-05 7.741832e-02 0.000000e+00
 2.420484e-05 7.742501e-02 0.000000e+00
 0.000000e+00 0.000000e+00 0.000000e+00
 -5.791531e-05 1.438949e-01 0.000000e+00
 6.323095e-08 5.908511e-02 0.000000e+00
 -2.582154e-05 1.149373e-01 0.000000e+00
 8.056615e-06 5.903145e-02 0.000000e+00
 0.000000e+00 0.000000e+00 0.000000e+00
 -7.489549e-05 1.307340e-01 0.000000e+00
 -1.875618e-05 9.486291e-02 0.000000e+00
 -1.945092e-02 1.214191e-02 0.000000e+00
 -1.511414e-02 4.587248e-03 0.000000e+00
 -5.999595e-03 2.752729e-03 0.000000e+00
 -2.309591e-04 9.913465e-02 0.000000e+00
 -1.079224e-04 9.957493e-02 0.000000e+00
 0.000000e+00 0.000000e+00 0.000000e+00
 -2.479366e-02 4.305660e-03 0.000000e+00
 0.000000e+00 0.000000e+00 0.000000e+00
 0.000000e+00 0.000000e+00 0.000000e+00
 -6.649283e-02 6.847684e-03 0.000000e+00
 -3.531522e-02 1.340881e-03 0.000000e+00
 -4.571088e-02 3.407846e-03 0.000000e+00
 -8.231125e-04 1.408143e-01 0.000000e+00
 -1.566050e-04 7.482196e-02 0.000000e+00
 -2.665997e-04 7.405475e-02 0.000000e+00
 0.000000e+00 0.000000e+00 0.000000e+00
 -2.750497e-02 2.541301e-02 0.000000e+00
 -1.342697e-02 1.915620e-02 0.000000e+00
 -3.851867e-02 4.410268e-03 0.000000e+00
 0.000000e+00 0.000000e+00 0.000000e+00
 -3.869814e-02 1.144919e-03 0.000000e+00
 0.000000e+00 0.000000e+00 0.000000e+00
 -6.149585e-02 2.144885e-03 0.000000e+00
 -5.743659e-02 2.060969e-03 0.000000e+00
 0.000000e+00 0.000000e+00 0.000000e+00
 -9.706173e-02 1.296100e-02 0.000000e+00
 -9.004397e-02 8.948979e-03 0.000000e+00
 -9.072157e-02 1.509966e-02 0.000000e+00
 -5.636595e-02 1.491200e-03 0.000000e+00
 -5.259458e-02 1.416066e-03 0.000000e+00
 0.000000e+00 0.000000e+00 0.000000e+00
 -1.049624e-01 7.070805e-03 0.000000e+00
 -8.142903e-02 3.032770e-03 0.000000e+00
 -1.305693e-01 3.791700e-03 0.000000e+00
 -9.525296e-02 1.615428e-03 0.000000e+00
 -5.857116e-02 7.568433e-04 0.000000e+00
 -2.561448e-03 1.341754e-01 0.000000e+00
 -3.821388e-04 6.661045e-02 0.000000e+00
 -7.655318e-04 1.000984e-01 0.000000e+00
 -6.033052e-04 6.491070e-02 0.000000e+00
 0.000000e+00 0.000000e+00 0.000000e+00
 -6.932364e-02 7.515833e-02 0.000000e+00
 -8.041862e-02 5.901104e-02 0.000000e+00
 -6.439006e-02 6.185342e-02 0.000000e+00
 -4.194261e-03 1.058879e-01 0.000000e+00
 -4.849987e-02 1.367793e-01 0.000000e+00
 0.000000e+00 0.000000e+00 0.000000e+00
 -7.248129e-03 1.599920e-01 0.000000e+00
 7.030944e-04 8.763092e-02 0.000000e+00
 1.362330e-04 1.384031e-01 0.000000e+00
 4.027128e-04 7.672983e-02 0.000000e+00
 6.994114e-04 8.676875e-02 0.000000e+00
 2.348895e-04 7.692063e-02 0.000000e+00
 0.000000e+00 0.000000e+00 0.000000e+00
 -4.995713e-04 1.582268e-01 0.000000e+00
 -3.188162e-04 1.683505e-01 0.000000e+00
 -1.873291e-04 1.659962e-01 0.000000e+00
 -1.346415e-01 3.473779e-03 0.000000e+00
 -5.948757e-02 5.948152e-04 0.000000e+00
 -1.412588e-01 5.642555e-03 0.000000e+00
 -5.560511e-02 1.375647e-03 0.000000e+00
 -1.109327e-01 3.838314e-03 0.000000e+00
 -1.190703e-01 7.719144e-03 0.000000e+00
 -7.367095e-02 1.714262e-03 0.000000e+00
 -8.678068e-02 2.997405e-03 0.000000e+00
 -1.724560e-01 7.456651e-03 0.000000e+00
 -9.203148e-02 1.604497e-03 0.000000e+00
 -1.240168e-01 2.846725e-03 0.000000e+00
 -1.185474e-01 5.270660e-03 0.000000e+00
 -7.203970e-02 1.498449e-03 0.000000e+00
 0.000000e+00 0.000000e+00 0.000000e+00
 -9.687523e-02 1.989014e-03 0.000000e+00
 0.000000e+00 0.000000e+00 0.000000e+00
 -1.232748e-03 6.514782e-02 0.000000e+00
 -9.171318e-04 6.834067e-02 0.000000e+00
 0.000000e+00 0.000000e+00 0.000000e+00
 -8.277218e-03 1.348538e-01 0.000000e+00
 -6.670497e-03 1.416959e-01 0.000000e+00
 -1.200576e-02 1.471868e-01 0.000000e+00
 1.910253e-05 9.136867e-02 0.000000e+00
 4.981633e-05 9.148201e-02 0.000000e+00
 0.000000e+00 0.000000e+00 0.000000e+00
 -1.333596e-02 1.047445e-01 0.000000e+00
 -2.846005e-03 5.835047e-02 0.000000e+00
 -5.403913e-03 8.701882e-02 0.000000e+00
 -1.483150e-01 1.557340e-02 0.000000e+00
 -1.464769e-01 1.633943e-02 0.000000e+00
 -1.562191e-01 1.386006e-02 0.000000e+00
 -1.292387e-01 4.975224e-03 0.000000e+00
 -1.200378e-01 3.429868e-03 0.000000e+00
 0.000000e+00 0.000000e+00 0.000000e+00
 -3.153747e-03 5.109942e-02 0.000000e+00
 0.000000e+00 0.000000e+00 0.000000e+00
 -6.724976e-03 4.485824e-02 0.000000e+00
 -6.008872e-03 5.601669e-02 0.000000e+00
 0.000000e+00 0.000000e+00 0.000000e+00
 -4.977651e-04 1.485276e-01 0.000000e+00
 -5.535090e-04 1.461435e-01 0.000000e+00
 -2.775421e-04 1.453782e-01 0.000000e+00
 -9.829477e-05 1.651341e-01 0.000000e+00
 -2.546808e-04 1.593555e-01 0.000000e+00
 -1.296375e-04 1.632773e-01 0.000000e+00
 -1.520107e-01 5.776748e-03 0.000000e+00
 -1.165174e-01 3.305650e-03 0.000000e+00
 -8.338094e-02 1.195884e-03 0.000000e+00
 -8.031976e-02 1.266948e-03 0.000000e+00
 0.000000e+00 0.000000e+00 0.000000e+00
 -1.342879e-01 2.627265e-02 0.000000e+00
 -1.298914e-01 2.722151e-02 0.000000e+00
 -1.456324e-01 2.870962e-02 0.000000e+00
 -1.467697e-01 1.695077e-02 0.000000e+00
 -1.450293e-01 1.704502e-02 0.000000e+00
 -1.076262e-04 1.601865e-01 0.000000e+00
 -5.008757e-06 1.492925e-01 0.000000e+00
 1.950453e-05 1.124607e-01 0.000000e+00
 -7.639324e-02 2.553588e-02 0.000000e+00
 -6.892333e-02 3.547262e-02 0.000000e+00
 -8.038545e-02 3.492782e-02 0.000000e+00
 -6.010281e-02 4.254444e-02 0.000000e+00
 -5.994015e-02 5.076483e-02 0.000000e+00
 -2.427692e-02 1.389977e-01 0.000000e+00
 -1.575970e-02 1.441462e-01 0.000000e+00
 -2.182037e-02 1.439795e-01 0.000000e+00
 -1.593965e-01 7.878128e-03 0.000000e+00
 -1.651541e-01 9.736269e-03 0.000000e+00
 -1.854360e-01 2.839128e-02 0.000000e+00
 -1.568904e-01 2.994479e-02 0.000000e+00
 -1.693115e-01 3.121494e-02 0.000000e+00
 -1.696106e-01 1.179507e-02 0.000000e+00
 -1.580433e-01 1.550427e-02 0.000000e+00
 -1.651531e-01 1.347183e-02 0.000000e+00
 -7.022090e-03 1.527620e-01 0.000000e+00
 -1.113893e-02 1.509308e-01 0.000000e+00
 -9.071783e-03 1.468907e-01 0.000000e+00
 -2.824136e-04 1.629387e-01 0.000000e+00
 -4.383337e-05 1.383088e-01 0.000000e+00
 -1.471329e-01 3.779074e-02 0.000000e+00
 -1.472502e-01 4.397277e-02 0.000000e+00
 -1.728815e-01 4.599938e-02 0.000000e+00
 -5.368322e-03 1.600402e-02 0.000000e+00
 -5.476095e-03 2.740250e-02 0.000000e+00
 0.000000e+00 0.000000e+00 0.000000e+00
 -1.644457e-01 1.201082e-02 0.000000e+00
 -3.545180e-02 7.286199e-02 0.000000e+00
 -4.959710e-02 5.237188e-02 0.000000e+00
 -3.454804e-02 5.995403e-02 0.000000e+00
 -1.375894e-01 3.313232e-02 0.000000e+00
 -1.540536e-01 3.310704e-02 0.000000e+00
 -1.301515e-01 2.979046e-02 0.000000e+00
 -1.068016e-01 2.413778e-02 0.000000e+00
 -1.096605e-01 2.151592e-02 0.000000e+00
 -1.025527e-01 1.785381e-02 0.000000e+00
 -5.734576e-04 1.676382e-01 0.000000e+00
 -1.095345e-04 1.575055e-01 0.000000e+00
 -1.278618e-03 1.546822e-01 0.000000e+00
 -1.824740e-03 1.598725e-01 0.000000e+00
 -1.948451e-03 1.497547e-01 0.000000e+00
 -7.256277e-03 1.543164e-01 0.000000e+00
 -8.966292e-03 1.465185e-01 0.000000e+00
 -1.129376e-02 1.476364e-01 0.000000e+00
 -1.596077e-02 1.296084e-01 0.000000e+00
 -2.405419e-02 1.309781e-01 0.000000e+00
 -2.609597e-02 1.213231e-01 0.000000e+00
 -5.371917e-02 1.336333e-01 0.000000e+00
 -5.252705e-02 1.105782e-01 0.000000e+00
 -3.732374e-02 1.255568e-01 0.000000e+00
 -1.737919e-01 1.570920e-01 0.000000e+00
 -1.354752e-01 1.700958e-01 0.000000e+00
 -1.320744e-01 3.725953e-03 0.000000e+00
 0.000000e+00 0.000000e+00 0.000000e+00
 -1.750055e-01 1.059758e-02 0.000000e+00
 -1.572158e-01 7.025311e-03 0.000000e+00
 -1.535105e-01 1.265444e-02 0.000000e+00
 -1.426167e-01 1.833491e-02 0.000000e+00
 -1.459774e-01 1.667126e-02 0.000000e+00
 -1.866770e-02 1.411937e-01 0.000000e+00
 -2.859071e-02 1.292428e-01 0.000000e+00
 -4.133899e-03 1.567077e-01 0.000000e+00
 -4.748860e-03 1.600735e-01 0.000000e+00
 -3.074041e-03 1.647627e-01 0.000000e+00
 -2.915597e-02 1.576511e-01 0.000000e+00
 -3.348514e-02 1.789871e-01 0.000000e+00
 -4.493218e-02 1.536638e-01 0.000000e+00
 -1.515759e-01 1.713343e-02 0.000000e+00
 -1.431795e-01 1.854034e-02 0.000000e+00
 -1.517851e-01 1.903500e-02 0.000000e+00
 -1.268901e-01 1.689256e-02 0.000000e+00
 -1.325822e-01 1.863362e-02 0.000000e+00
 -1.291250e-01 1.188703e-02 0.000000e+00
 -1.592913e-01 2.409364e-02 0.000000e+00
 -1.509747e-01 2.174816e-02 0.000000e+00
 -1.429220e-01 2.383685e-02 0.000000e+00
 -9.730321e-02 3.108099e-02 0.000000e+00
 -1.020014e-01 2.690594e-02 0.000000e+00
 -9.203995e-02 2.264646e-02 0.000000e+00
 -2.102749e-01 4.307769e-02 0.000000e+00
 -2.153398e-01 5.848025e-02 0.000000e+00
 -7.245650e-02 2.080888e-02 0.000000e+00
 -7.926920e-02 1.834988e-02 0.000000e+00
 -7.821342e-02 1.181695e-02 0.000000e+00
 -6.869842e-02 4.172268e-03 0.000000e+00
 -4.636713e-02 1.443699e-03 0.000000e+00
 -5.054071e-02 6.908658e-02 0.000000e+00
 -3.963603e-02 7.869742e-02 0.000000e+00
 -4.125902e-02 8.757084e-02 0.000000e+00
 -1.167688e-01 2.507343e-02 0.000000e+00
 -1.135335e-01 1.916752e-02 0.000000e+00
 -2.135946e-03 1.455524e-01 0.000000e+00
 -3.270672e-03 1.466717e-01 0.000000e+00
 -2.153976e-03 1.680685e-01 0.000000e+00
 -3.335189e-03 1.583025e-01 0.000000e+00
 -2.009069e-03 1.651366e-01 0.000000e+00
 -5.653408e-03 1.609801e-01 0.000000e+00
 -9.265778e-03 1.569386e-01 0.000000e+00
 -5.595053e-03 1.546266e-01 0.000000e+00
 -1.307232e-03 1.489314e-01 0.000000e+00
 -5.080760e-02 1.374723e-02 0.000000e+00
 -4.521544e-02 2.876309e-02 0.000000e+00
 -6.167443e-02 2.444797e-02 0.000000e+00
 -1.904943e-02 5.342694e-02 0.000000e+00
 -3.432989e-02 4.220348e-02 0.000000e+00
 -1.658107e-03 1.666249e-01 0.000000e+00
 -1.696713e-03 1.624883e-01 0.000000e+00
 -3.182712e-03 1.535614e-01 0.000000e+00
 -1.770313e-03 1.629594e-01 0.000000e+00
 -2.042199e-03 1.538909e-01 0.000000e+00
 -1.235663e-01 2.312891e-02 0.000000e+00
 -1.212506e-01 1.646159e-02 0.000000e+00
 -8.995934e-02 5.586024e-03 0.000000e+00
 -1.014028e-01 1.053374e-02 0.000000e+00
 -1.058760e-01 9.809813e-03 0.000000e+00
 -2.246290e-02 1.872593e-01 0.000000e+00
 -4.989635e-02 1.944753e-01 0.000000e+00
 -1.953296e-01 8.156255e-02 0.000000e+00
 -7.569897e-02 1.336016e-03 0.000000e+00
 0.000000e+00 0.000000e+00 0.000000e+00
 -1.152753e-01 1.291641e-02 0.000000e+00
 -4.333813e-02 9.223053e-02 0.000000e+00
 -3.498188e-02 1.109018e-01 0.000000e+00
 -4.524625e-02 9.937883e-02 0.000000e+00
 -1.409996e-02 8.172714e-02 0.000000e+00
 -1.951409e-02 9.914197e-02 0.000000e+00
 -2.508012e-02 8.695360e-02 0.000000e+00
 -1.131647e-03 1.671356e-01 0.000000e+00
 -5.200735e-04 1.649353e-01 0.000000e+00
 -4.328699e-04 1.584413e-01 0.000000e+00
 -1.073333e-01 7.114528e-02 0.000000e+00
 -1.089942e-01 9.496815e-02 0.000000e+00
 -1.310784e-01 8.775338e-02 0.000000e+00
 -1.207703e-02 1.509761e-01 0.000000e+00
 -1.334698e-02 1.512556e-01 0.000000e+00
 -1.669616e-03 5.642616e-02 0.000000e+00
 -1.406663e-03 6.095909e-02 0.000000e+00
 0.000000e+00 0.000000e+00 0.000000e+00
 -1.961451e-02 1.426056e-01 0.000000e+00
 -2.833169e-02 1.345500e-01 0.000000e+00
 -8.703509e-02 1.003303e-01 0.000000e+00
 -6.508200e-02 9.287973e-02 0.000000e+00
 -2.494035e-02 1.151812e-01 0.000000e+00
 -3.198895e-02 1.008290e-01 0.000000e+00
 -2.312290e-02 1.092157e-01 0.000000e+00
 -1.417846e-01 1.759376e-02 0.000000e+00
 -1.388093e-01 2.156453e-02 0.000000e+00
 -2.141417e-01 2.177414e-02 0.000000e+00
 -2.051487e-01 1.649568e-02 0.000000e+00
 -1.986477e-01 2.409300e-02 0.000000e+00
 -1.211711e-01 3.585271e-02 0.000000e+00
 -1.071430e-01 2.696241e-02 0.000000e+00
 -1.870296e-01 3.466098e-02 0.000000e+00
 -2.203208e-01 3.216502e-02 0.000000e+00
 -8.409629e-02 1.822971e-02 0.000000e+00
 -1.620497e-01 9.027964e-02 0.000000e+00
 -1.672089e-01 1.237480e-01 0.000000e+00
 0.000000e+00 0.000000e+00 0.000000e+00
 -1.617209e-02 1.560322e-01 0.000000e+00
 -1.166454e-02 1.668527e-01 0.000000e+00
 -5.791325e-03 1.686231e-01 0.000000e+00
 -8.149422e-03 1.746809e-01 0.000000e+00
 -4.515225e-03 1.458229e-01 0.000000e+00
 -4.176735e-03 1.506804e-01 0.000000e+00
 -1.848842e-01 1.517424e-02 0.000000e+00
 -1.827357e-01 2.046251e-02 0.000000e+00
 -1.922058e-01 1.410456e-02 0.000000e+00
 -1.581781e-01 2.759072e-02 0.000000e+00
 -1.861837e-01 2.467191e-02 0.000000e+00
 -1.719003e-01 2.507672e-02 0.000000e+00
 -1.490280e-01 8.459282e-03 0.000000e+00
 -1.559572e-01 8.302013e-03 0.000000e+00
 -1.755360e-01 8.211155e-03 0.000000e+00
 -1.956586e-01 1.300244e-02 0.000000e+00
 -1.686902e-01 1.729979e-02 0.000000e+00
 -6.170546e-02 3.530178e-02 0.000000e+00
 -7.644125e-02 1.963768e-01 0.000000e+00
 -8.613198e-02 1.854547e-01 0.000000e+00
 -4.172429e-04 1.553303e-01 0.000000e+00
 -8.770773e-04 1.621213e-01 0.000000e+00
 -1.631860e-03 1.689709e-01 0.000000e+00
 5.043669e-05 1.213332e-01 0.000000e+00
 -8.383442e-03 1.783680e-01 0.000000e+00
 -2.111218e-03 1.675035e-01 0.000000e+00
 -8.067009e-02 7.974259e-03 0.000000e+00
 -8.216318e-02 5.316478e-03 0.000000e+00
 -8.478962e-02 8.135480e-03 0.000000e+00
 -2.658761e-03 1.128695e-01 0.000000e+00
 -5.059267e-03 1.444238e-01 0.000000e+00
 -1.676664e-03 1.403364e-01 0.000000e+00
 -1.946958e-03 1.559193e-01 0.000000e+00
 -3.275194e-03 1.602315e-01 0.000000e+00
 -6.315424e-03 1.461543e-01 0.000000e+00
 -4.496192e-03 1.489053e-01 0.000000e+00
 -5.393827e-03 1.619614e-01 0.000000e+00
 -1.324523e-01 2.247806e-02 0.000000e+00
 -1.375187e-01 1.803835e-02 0.000000e+00
 -1.430722e-01 9.166681e-03 0.000000e+00
 -1.353234e-01 8.889462e-03 0.000000e+00
 -1.431148e-01 1.375496e-02 0.000000e+00
 -6.402293e-04 1.650970e-01 0.000000e+00
 -7.610587e-04 1.561185e-01 0.000000e+00
 -4.247331e-04 1.507631e-01 0.000000e+00
 -1.047108e-03 1.674283e-01 0.000000e+00
 -7.357912e-02 1.516478e-01 0.000000e+00
 -1.013880e-01 1.528847e-01 0.000000e+00
 -1.378979e-01 1.518714e-01 0.000000e+00
 -1.024962e-01 1.220132e-01 0.000000e+00
 -2.159037e-01 2.136029e-02 0.000000e+00
 -1.216632e-01 3.049499e-02 0.000000e+00
 -1.797731e-01 1.257486e-02 0.000000e+00
 -1.257011e-01 2.739296e-02 0.000000e+00
 -9.828074e-02 4.007945e-02 0.000000e+00