<?xml version="1.0"?>
<VTKFile type="UnstructuredGrid"  version="0.1"  >
<UnstructuredGrid>
<Piece  NumberOfPoints="505" NumberOfCells="928">
<Points>
<DataArray  type="Float32"  NumberOfComponents="3"  format="ascii">
0 0 0
1 0 0
0 1 0
1 0.5 0
0.5 0.5 0
0.5 1 0
0.1 0 0
0.2 0 0
0.3 0 0
0.4 0 0
0.5 0 0
0.6 0 0
0.7 0 0
0.8 0 0
0.9 0 0
0 0.9 0
0 0.8 0
0 0.7 0
0 0.6 0
0 0.5 0
0 0.4 0
0 0.3 0
0 0.2 0
0 0.1 0
0.9 0.5 0
0.8 0.5 0
0.7 0.5 0
0.6 0.5 0
0.5 0.6 0
0.5 0.7 0
0.5 0.8 0
0.5 0.9 0
0.1 1 0
0.2 1 0
0.3 1 0
0.4 1 0
1 0.1 0
1 0.2 0
1 0.3 0
1 0.4 0
0.300178 0.296564 0
0.247566 0.664879 0
0.639694 0.259804 0
0.06564 0.06472 0
0.04439 0.954144 0
0.932418 0.064715 0
0.951013 0.456419 0
0.437622 0.939659 0
0.195334 0.464441 0
0.483382 0.329596 0
0.834786 0.236295 0
0.307228 0.81139 0
0.178229 0.173372 0
0.366998 0.134199 0
0.547485 0.14214 0
0.124832 0.74927 0
0.160163 0.896658 0
0.342556 0.535243 0
0.147651 0.342018 0
0.729803 0.127878 0
0.725981 0.357775 0
0.121369 0.600441 0
0.372954 0.70814 0
0.908503 0.151525 0
0.89851 0.333305 0
0.556275 0.400898 0
0.259184 0.092178 0
0.46329 0.194362 0
0.423773 0.869712 0
0.22823 0.818162 0
0.081292 0.144905 0
0.082979 0.831935 0
0.549999 0.065419 0
0.371537 0.407588 0
0.642628 0.097865 0
0.459835 0.086595 0
0.108565 0.418567 0
0.273082 0.902112 0
0.256598 0.556659 0
0.11951 0.509541 0
0.234147 0.370527 0
0.097453 0.253261 0
0.638438 0.342389 0
0.554656 0.224779 0
0.373432 0.237603 0
0.339663 0.62579 0
0.27079 0.747786 0
0.733958 0.266592 0
0.928527 0.244458 0
0.853116 0.071497 0
0.818426 0.404817 0
0.280194 0.200604 0
0.417859 0.565185 0
0.147241 0.079056 0
0.389149 0.789957 0
0.42808 0.654642 0
0.343469 0.059202 0
0.086765 0.684153 0
0.162043 0.675011 0
0.809252 0.14201 0
0.364337 0.928607 0
0.077532 0.916553 0
0.159064 0.807906 0
0.302124 0.454032 0
0.205909 0.272176 0
0.449664 0.407415 0
0.66041 0.423241 0
0.562201 0.303789 0
0.802658 0.320211 0
0.614551 0.182931 0
0.390944 0.331035 0
0.687136 0.18846 0
0.070577 0.342498 0
0.741087 0.437361 0
0.176989 0.547528 0
0.710251 0.07409 0
0.192845 0.608574 0
0.171114 0.398277 0
0.058959 0.753084 0
0.904 0.425508 0
0.438039 0.730373 0
0.057223 0.475897 0
0.058502 0.552106 0
0.330493 0.750997 0
0.312295 0.699131 0
0.684882 0.307111 0
0.053312 0.627311 0
0.198798 0.743695 0
0.392326 0.069953 0
0.351519 0.860283 0
0.397134 0.477694 0
0.319385 0.371198 0
0.767351 0.069505 0
0.441954 0.271171 0
0.759504 0.192785 0
0.855661 0.457701 0
0.500847 0.264652 0
0.916209 0.0323575 0
0.966209 0.0323575 0
0.95 0 0
0.578137 0.450449 0
0.528137 0.450449 0
0.55 0.5 0
0.03282 0.08236 0
0.03282 0.03236 0
0 0.05 0
0.502969 0.404157 0
0.474832 0.453708 0
0.468811 0.91983 0
0.468811 0.96983 0
0.5 0.95 0
0.072195 0.977072 0
0.022195 0.977072 0
0.05 1 0
0.022195 0.927072 0
0 0.95 0
0.060961 0.935348 0
0.038766 0.908276 0
0.106441 0.071888 0
0.123621 0.039528 0
0.08282 0.03236 0
0.0414895 0.815967 0
0.0414895 0.865968 0
0 0.85 0
0.173621 0.039528 0
0.15 0 0
0.05 0 0
0.301327 0.07569 0
0.321735 0.029601 0
0.279592 0.046089 0
0.070969 0.792509 0
0.0294795 0.776542 0
0.0294795 0.726542 0
0 0.75 0
0.114267 0.111981 0
0.073466 0.104813 0
0.229592 0.046089 0
0.25 0 0
0.371735 0.029601 0
0.35 0 0
0.479917 0.0432975 0
0.429918 0.0432975 0
0.45 0 0
0.461562 0.140479 0
0.413416 0.110397 0
0.415144 0.16428 0
0.574999 0.0327095 0
0.525 0.0327095 0
0.55 0 0
0.596313 0.081642 0
0.621314 0.0489325 0
0.927507 0.440964 0
0.902 0.462754 0
0.925507 0.47821 0
0.0700385 0.655732 0
0.026656 0.663655 0
0.0433825 0.692076 0
0.026656 0.613655 0
0 0.65 0
0.276766 0.370862 0
0.309781 0.333881 0
0.267162 0.333545 0
0.458929 0.582593 0
0.458929 0.532593 0
0.5 0.55 0
0.422969 0.609913 0
0.46404 0.627321 0
0.43306 0.692508 0
0.46902 0.715186 0
0.46404 0.677321 0
0.46902 0.765186 0
0.5 0.75 0
0.180082 0.948329 0
0.130082 0.948329 0
0.15 1 0
0.87983 0.441605 0
0.87783 0.478851 0
0.975507 0.42821 0
0.975507 0.47821 0
1 0.45 0
0.676439 0.0859775 0
0.705125 0.037045 0
0.671314 0.0489325 0
0.779756 0.421089 0
0.770544 0.46868 0
0.809213 0.452408 0
0.738801 0.0717975 0
0.733675 0.0347525 0
0.95 0.5 0
0.720544 0.46868 0
0.75 0.5 0
0.029251 0.526053 0
0.029251 0.576053 0
0 0.55 0
0.089006 0.530824 0
0.0899355 0.576273 0
0.12044 0.554991 0
0.461886 0.884856 0
0.461886 0.834856 0
0.5 0.85 0
0.089571 0.380533 0
0.0352885 0.371249 0
0.0542825 0.409284 0
0.918515 0.197991 0
0.964263 0.222229 0
0.954252 0.175762 0
0.630205 0.46162 0
0.680205 0.46162 0
0.65 0.5 0
0.0352885 0.321249 0
0 0.35 0
0.0487265 0.226631 0
0.0487265 0.276631 0
0 0.25 0
0.286541 0.951056 0
0.236541 0.951056 0
0.25 1 0
0.382169 0.964303 0
0.332168 0.964303 0
0.35 1 0
0.966209 0.0823575 0
1 0.05 0
0.876558 0.0357485 0
0.826558 0.0357485 0
0.85 0 0
0.710547 0.227526 0
0.663415 0.224132 0
0.686826 0.263198 0
0.964263 0.272229 0
1 0.25 0
0.40098 0.934133 0
0.418811 0.96983 0
0.45 1 0
0.326813 0.219104 0
0.290186 0.248584 0
0.336805 0.267084 0
0.243052 0.23639 0
0.253043 0.28437 0
0.224721 0.582616 0
0.220205 0.636726 0
0.252082 0.610769 0
0.92046 0.10812 0
0.954252 0.125762 0
0.66166 0.32475 0
0.662288 0.283458 0
0.639066 0.301096 0
0.949255 0.366653 0
0.949255 0.316653 0
1 0.35 0
0.291542 0.723459 0
0.27993 0.682005 0
0.259178 0.706333 0
0.394055 0.89916 0
0.430698 0.904686 0
0.531524 0.28422 0
0.492115 0.297124 0
0.522791 0.316692 0
0.040646 0.122453 0
0.040646 0.172453 0
0 0.15 0
1 0.15 0
0.151681 0.262718 0
0.192069 0.222774 0
0.137841 0.213317 0
0.558428 0.264284 0
0.600947 0.281797 0
0.597175 0.242291 0
0.508973 0.20957 0
0.551071 0.183459 0
0.505387 0.168251 0
0.118847 0.906605 0
0.088766 0.958276 0
0.3123 0.881198 0
0.329373 0.835836 0
0.290155 0.856751 0
0.18042 0.709353 0
0.223182 0.704287 0
0.204805 0.669945 0
0.114037 0.464054 0
0.157422 0.486991 0
0.15195 0.441504 0
0.279361 0.505346 0
0.248729 0.459236 0
0.225966 0.51055 0
0.423399 0.442555 0
0.448567 0.488847 0
0.892767 0.068106 0
0.65 0 0
0.901255 0.379406 0
0.952 0.412754 0
0.858877 0.146767 0
0.822019 0.189153 0
0.871644 0.19391 0
0.14825 0.528535 0
0.186162 0.505985 0
0.178931 0.775801 0
0.161815 0.746482 0
0.141948 0.778588 0
0.29813 0.591225 0
0.34111 0.580516 0
0.299577 0.545951 0
0.913519 0.288882 0
0.881657 0.240376 0
0.866648 0.2848 0
0.664882 0.143162 0
0.708469 0.158169 0
0.686215 0.112871 0
0.768308 0.293401 0
0.818722 0.278253 0
0.784372 0.251443 0
0.407693 0.254387 0
0.452622 0.232766 0
0.418361 0.215983 0
0.559238 0.352343 0
0.519829 0.365247 0
0.269689 0.146391 0
0.323596 0.167402 0
0.313091 0.113188 0
0.367897 0.0645775 0
0.396163 0.0349765 0
0.220028 0.321352 0
0.17678 0.307097 0
0.190899 0.356272 0
0.584604 0.203855 0
0.581018 0.162535 0
0.250656 0.860137 0
0.267729 0.814776 0
0.359821 0.770477 0
0.31886 0.781193 0
0.348189 0.800674 0
0.124404 0.679582 0
0.141706 0.637726 0
0.104067 0.642297 0
0.216622 0.899385 0
0.203213 0.085617 0
0.162735 0.126214 0
0.218707 0.132775 0
0.0893725 0.199083 0
0.129761 0.159139 0
0.121022 0.819921 0
0.103905 0.790602 0
0.193647 0.813034 0
0.159614 0.852282 0
0.194196 0.85741 0
0.650843 0.185696 0
0.628589 0.140398 0
0.504917 0.076007 0
0.50366 0.114367 0
0.548742 0.103779 0
0.378761 0.595487 0
0.380208 0.550214 0
0.466523 0.368506 0
0.783675 0.0347525 0
0.75 0 0
0.595056 0.120002 0
0.20263 0.384402 0
0.183224 0.431359 0
0.214741 0.417484 0
0.084015 0.29788 0
0.109114 0.342258 0
0.122552 0.29764 0
0.370334 0.82512 0
0.387646 0.864998 0
0.406461 0.829835 0
0.355164 0.351116 0
0.345461 0.389393 0
0.38124 0.369312 0
0.177444 0.641792 0
0.157107 0.604507 0
0.0286115 0.437949 0
0.0286115 0.487949 0
0 0.45 0
0.184917 0.578051 0
0.216794 0.552094 0
0.310754 0.412615 0
0.268135 0.41228 0
0.13984 0.408422 0
0.159382 0.370147 0
0.128108 0.380293 0
0.784378 0.167398 0
0.797145 0.21454 0
0.649424 0.382815 0
0.693196 0.390508 0
0.682209 0.350082 0
0.471401 0.267911 0
0.482069 0.229507 0
0.600319 0.323089 0
0.597356 0.371644 0
0.370215 0.185901 0
0.420304 0.369225 0
0.410601 0.407502 0
0.5 0.65 0
0.293615 0.645334 0
0.325979 0.66246 0
0.342624 0.703635 0
0.356309 0.666965 0
0.24951 0.782974 0
0.289009 0.779588 0
0.810542 0.362514 0
0.76432 0.338993 0
0.772204 0.381296 0
0.70942 0.286852 0
0.705431 0.332443 0
0.729969 0.312184 0
0.831184 0.106754 0
0.88081 0.111511 0
0.700748 0.430301 0
0.733534 0.397568 0
0.850584 0.326758 0
0.229212 0.186988 0
0.407496 0.52144 0
0.369845 0.506468 0
0.413594 0.760165 0
0.405497 0.719256 0
0.381051 0.749049 0
0.444574 0.794979 0
0.383872 0.640216 0
0.400517 0.681391 0
0.355233 0.0967005 0
0.42608 0.078274 0
0.379662 0.102076 0
0.055907 0.589708 0
0.0873405 0.613876 0
0.072862 0.718619 0
0.0918955 0.751177 0
0.105798 0.716711 0
0.234794 0.74574 0
0.213514 0.780928 0
0.143437 0.712141 0
0.72332 0.190623 0
0.744653 0.160332 0
0.788301 0.105758 0
0.748577 0.0986915 0
0.769527 0.134944 0
0.357928 0.894445 0
0.318709 0.915359 0
0.0802555 0.874244 0
0.121571 0.864297 0
0.32234 0.494638 0
0.349629 0.465863 0
0.384335 0.442641 0
0.336831 0.43081 0
0.608343 0.412069 0
0.527752 0.244716 0
0.858468 0.369061 0
0.627123 0.221367 0
0.382188 0.284319 0
0.345561 0.3138 0
0.437163 0.330315 0
0.746731 0.229689 0
0.149179 0.573985 0
0.720027 0.100984 0
0.810234 0.070501 0
0.861213 0.415162 0
0.827831 0.478851 0
0.85 0.5 0
0.082894 0.447232 0
0.0883665 0.492719 0
0.0578625 0.514002 0
0.300642 0.749391 0
0.351723 0.729569 0
0.321394 0.725064 0
0.416449 0.301103 0
0.462668 0.300384 0
0.837044 0.431259 0
</DataArray>
</Points>
<Cells>
<DataArray  type="UInt32"  Name="connectivity"  format="ascii">
1 138 139 
14 137 139 
45 137 138 
137 138 139 
4 141 142 
27 140 142 
65 140 141 
140 141 142 
0 144 145 
23 143 145 
43 143 144 
143 144 145 
4 141 147 
65 141 146 
105 146 147 
141 146 147 
5 149 150 
31 148 150 
47 148 149 
148 149 150 
2 152 153 
32 151 153 
44 151 152 
151 152 153 
2 152 155 
15 154 155 
44 152 154 
152 154 155 
15 154 157 
44 154 156 
101 156 157 
154 156 157 
6 159 160 
43 158 160 
93 158 159 
158 159 160 
15 162 163 
16 161 163 
71 161 162 
161 162 163 
6 159 165 
7 164 165 
93 159 164 
159 164 165 
[...]
<PointData  Vectors="u"> 
<DataArray  type="Float32"  Name="u"  NumberOfComponents="3" format="ascii">
 0.000000e+00 0.000000e+00 0.000000e+00
 0.000000e+00 0.000000e+00 0.000000e+00
 0.000000e+00 0.000000e+00 0.000000e+00
 0.000000e+00 0.000000e+00 0.000000e+00
 0.000000e+00 0.000000e+00 0.000000e+00
 0.000000e+00 0.000000e+00 0.000000e+00
 0.000000e+00 0.000000e+00 0.000000e+00
 0.000000e+00 0.000000e+00 0.000000e+00
 0.000000e+00 0.000000e+00 0.000000e+00
 0.000000e+00 0.000000e+00 0.000000e+00
 0.000000e+00 0.000000e+00 0.000000e+00
 0.000000e+00 0.000000e+00 0.000000e+00
 0.000000e+00 0.000000e+00 0.000000e+00
 0.000000e+00 0.000000e+00 0.000000e+00
 0.000000e+00 0.000000e+00 0.000000e+00
 0.000000e+00 0.000000e+00 0.000000e+00
 0.000000e+00 0.000000e+00 0.000000e+00
 0.000000e+00 0.000000e+00 0.000000e+00
 0.000000e+00 0.000000e+00 0.000000e+00
 0.000000e+00 0.000000e+00 0.000000e+00
 0.000000e+00 0.000000e+00 0.000000e+00
 0.000000e+00 0.000000e+00 0.000000e+00
 0.000000e+00 0.000000e+00 0.000000e+00
 0.000000e+00 0.000000e+00 0.000000e+00
 0.000000e+00 0.000000e+00 0.000000e+00
 0.000000e+00 0.000000e+00 0.000000e+00
 0.000000e+00 0.000000e+00 0.000000e+00
 0.000000e+00 0.000000e+00 0.000000e+00
 0.000000e+00 0.000000e+00 0.000000e+00
 0.000000e+00 0.000000e+00 0.000000e+00
 0.000000e+00 0.000000e+00 0.000000e+00
 0.000000e+00 0.000000e+00 0.000000e+00
 1.237196e-03 -3.584076e-01 0.000000e+00
 2.337992e-03 -4.635136e-01 0.000000e+00
 2.462449e-03 -4.733578e-01 0.000000e+00
 1.425984e-03 -3.789320e-01 0.000000e+00
 3.759577e-01 7.051277e-04 0.000000e+00
 4.717430e-01 1.344550e-03 0.000000e+00
 4.658765e-01 1.914729e-03 0.000000e+00
 3.607141e-01 1.402051e-03 0.000000e+00
 2.208470e-01 -2.475518e-01 0.000000e+00
 4.243181e-02 -4.671125e-01 0.000000e+00
 4.885596e-01 -3.663058e-02 0.000000e+00
 9.580831e-03 -9.983908e-03 0.000000e+00
 4.590996e-04 -2.016979e-01 0.000000e+00
 2.878636e-01 9.356701e-04 0.000000e+00
 1.988814e-01 7.626819e-04 0.000000e+00
 1.037411e-03 -2.824852e-01 0.000000e+00
 8.795511e-02 -3.625002e-01 0.000000e+00
 4.444341e-01 -2.174011e-01 0.000000e+00
 4.798792e-01 4.829525e-03 0.000000e+00
 1.315440e-02 -4.735410e-01 0.000000e+00
 9.681834e-02 -1.069993e-01 0.000000e+00
 2.587496e-01 -7.507867e-02 0.000000e+00
 3.944185e-01 -4.160318e-02 0.000000e+00
 1.160914e-02 -3.881012e-01 0.000000e+00
 4.182501e-03 -4.376454e-01 0.000000e+00
 1.255056e-01 -4.769412e-01 0.000000e+00
 7.036774e-02 -2.356371e-01 0.000000e+00
 4.217183e-01 -1.864785e-03 0.000000e+00
 4.268033e-01 7.456384e-03 0.000000e+00
 2.621677e-02 -3.512897e-01 0.000000e+00
 2.530349e-02 -4.422092e-01 0.000000e+00
 4.464813e-01 2.822060e-03 0.000000e+00
 4.468564e-01 5.729000e-03 0.000000e+00
 4.087431e-01 -9.973914e-02 0.000000e+00
 1.396559e-01 -4.464098e-02 0.000000e+00
 3.736596e-01 -1.058446e-01 0.000000e+00
 2.767409e-03 -3.265177e-01 0.000000e+00
 1.208768e-02 -4.707365e-01 0.000000e+00
 2.420808e-02 -4.997247e-02 0.000000e+00
 3.372044e-03 -3.158534e-01 0.000000e+00
 2.700650e-01 -1.005153e-02 0.000000e+00
 2.753049e-01 -3.906524e-01 0.000000e+00
 3.653209e-01 -8.104750e-03 0.000000e+00
 2.766694e-01 -2.833997e-02 0.000000e+00
 3.828177e-02 -2.466879e-01 0.000000e+00
 5.276386e-03 -4.771180e-01 0.000000e+00
 8.563047e-02 -4.476604e-01 0.000000e+00
 3.629098e-02 -3.120753e-01 0.000000e+00
 1.418167e-01 -3.084844e-01 0.000000e+00
 3.577815e-02 -1.273353e-01 0.000000e+00
 4.643116e-01 -2.745432e-02 0.000000e+00
 4.529401e-01 -8.019709e-02 0.000000e+00
 2.996468e-01 -1.761984e-01 0.000000e+00
 6.028321e-02 -4.772037e-01 0.000000e+00
 2.363608e-02 -4.767395e-01 0.000000e+00
 4.843268e-01 -2.124534e-03 0.000000e+00
 4.777548e-01 3.645651e-03 0.000000e+00
 3.100963e-01 1.701525e-03 0.000000e+00
 3.435888e-01 7.554301e-03 0.000000e+00
 1.959410e-01 -1.444807e-01 0.000000e+00
 7.581388e-02 -4.320131e-01 0.000000e+00
 5.178560e-02 -2.908753e-02 0.000000e+00
 1.018071e-02 -4.079126e-01 0.000000e+00
 2.220774e-02 -3.533350e-01 0.000000e+00
 1.593135e-01 -2.007408e-02 0.000000e+00
 1.029229e-02 -3.075855e-01 0.000000e+00
 2.615636e-02 -4.193134e-01 0.000000e+00
 4.390279e-01 2.403199e-03 0.000000e+00
 2.971560e-03 -4.340841e-01 0.000000e+00
 1.393194e-03 -3.057366e-01 0.000000e+00
 9.832723e-03 -4.328434e-01 0.000000e+00
 1.701301e-01 -4.143119e-01 0.000000e+00
 1.246272e-01 -2.049111e-01 0.000000e+00
 3.802420e-01 -3.510692e-01 0.000000e+00
 2.887022e-01 5.367646e-03 0.000000e+00
 4.859288e-01 -1.054892e-01 0.000000e+00
 4.580879e-01 8.350623e-03 0.000000e+00
 4.521921e-01 -3.497805e-02 0.000000e+00
 3.304612e-01 -2.856954e-01 0.000000e+00
 4.680460e-01 -1.323031e-02 0.000000e+00
 1.945807e-02 -1.452752e-01 0.000000e+00
 2.477994e-01 7.422420e-03 0.000000e+00
 5.662349e-02 -3.936849e-01 0.000000e+00
 3.184074e-01 -5.459501e-04 0.000000e+00
 4.701769e-02 -4.278198e-01 0.000000e+00
 8.329925e-02 -2.974267e-01 0.000000e+00
 3.603544e-03 -2.422731e-01 0.000000e+00
 2.978156e-01 2.846023e-03 0.000000e+00
 8.194657e-03 -2.992572e-01 0.000000e+00
 1.130082e-02 -1.750858e-01 0.000000e+00
 9.604774e-03 -2.029900e-01 0.000000e+00
 2.139586e-02 -4.683936e-01 0.000000e+00
 3.466009e-02 -4.766347e-01 0.000000e+00
 4.792211e-01 -1.087744e-02 0.000000e+00
 6.108869e-03 -2.058412e-01 0.000000e+00
 2.044549e-02 -4.549442e-01 0.000000e+00
 2.080814e-01 -2.436766e-02 0.000000e+00
 6.817748e-03 -4.486286e-01 0.000000e+00
 2.183038e-01 -4.669133e-01 0.000000e+00
 2.298757e-01 -3.363798e-01 0.000000e+00
 3.060161e-01 1.154353e-03 0.000000e+00
 3.845278e-01 -1.896851e-01 0.000000e+00
 4.726538e-01 -7.834011e-04 0.000000e+00
 1.894735e-01 2.011656e-03 0.000000e+00
 4.384225e-01 -1.435284e-01 0.000000e+00
 1.661600e-01 4.311866e-04 0.000000e+00
 1.654868e-01 2.472764e-04 0.000000e+00
 0.000000e+00 0.000000e+00 0.000000e+00
 2.185169e-01 -2.000431e-02 0.000000e+00
 2.930135e-01 -1.366078e-01 0.000000e+00
 0.000000e+00 0.000000e+00 0.000000e+00
 3.365379e-03 -6.898950e-03 0.000000e+00
 6.138069e-04 -6.040659e-04 0.000000e+00
 0.000000e+00 0.000000e+00 0.000000e+00
 4.249174e-01 -2.351216e-01 0.000000e+00
 3.176515e-01 -3.396155e-01 0.000000e+00
 4.298604e-04 -1.618484e-01 0.000000e+00
 3.794411e-04 -1.609960e-01 0.000000e+00
 0.000000e+00 0.000000e+00 0.000000e+00
 8.266477e-04 -2.924610e-01 0.000000e+00
 2.049918e-04 -1.100113e-01 0.000000e+00
 5.262714e-04 -2.227078e-01 0.000000e+00
 1.761859e-04 -1.094345e-01 0.000000e+00
 0.000000e+00 0.000000e+00 0.000000e+00
 8.102698e-04 -2.584261e-01 0.000000e+00
 4.984670e-04 -1.794099e-01 0.000000e+00
 2.677632e-02 -1.969542e-02 0.000000e+00
 2.158336e-02 -8.082204e-03 0.000000e+00
 7.373512e-03 -3.856642e-03 0.000000e+00
 1.293478e-03 -1.862972e-01 0.000000e+00
 8.372571e-04 -1.883420e-01 0.000000e+00
 0.000000e+00 0.000000e+00 0.000000e+00
 4.125136e-02 -9.968727e-03 0.000000e+00
 0.000000e+00 0.000000e+00 0.000000e+00
 0.000000e+00 0.000000e+00 0.000000e+00
 1.561441e-01 -3.183421e-02 0.000000e+00
 8.664353e-02 -6.486449e-03 0.000000e+00
 1.005740e-01 -1.409254e-02 0.000000e+00
 3.650059e-03 -2.815519e-01 0.000000e+00
 1.016169e-03 -1.366678e-01 0.000000e+00
 1.420652e-03 -1.334258e-01 0.000000e+00
 0.000000e+00 0.000000e+00 0.000000e+00
 4.028406e-02 -4.351980e-02 0.000000e+00
 1.747723e-02 -2.682115e-02 0.000000e+00
 7.461652e-02 -1.403568e-02 0.000000e+00
 0.000000e+00 0.000000e+00 0.000000e+00
 1.036536e-01 -5.921348e-03 0.000000e+00
 0.000000e+00 0.000000e+00 0.000000e+00
 1.826009e-01 -7.701026e-03 0.000000e+00
 1.648968e-01 -9.588591e-03 0.000000e+00
 0.000000e+00 0.000000e+00 0.000000e+00
 3.400315e-01 -6.361511e-02 0.000000e+00
 2.778913e-01 -4.985725e-02 0.000000e+00
 3.173435e-01 -9.369627e-02 0.000000e+00
 1.647357e-01 -2.040290e-03 0.000000e+00
 1.567769e-01 -3.428918e-03 0.000000e+00
 0.000000e+00 0.000000e+00 0.000000e+00
 3.223073e-01 -1.003100e-02 0.000000e+00
 2.322337e-01 -2.577142e-03 0.000000e+00
 2.525336e-01 1.570356e-03 0.000000e+00
 1.726037e-01 1.066960e-03 0.000000e+00
 1.072488e-01 3.856734e-04 0.000000e+00
 8.436528e-03 -2.602858e-01 0.000000e+00
 1.659965e-03 -1.164460e-01 0.000000e+00
 3.194554e-03 -1.831340e-01 0.000000e+00
 2.073093e-03 -1.109180e-01 0.000000e+00
 0.000000e+00 0.000000e+00 0.000000e+00
 1.838330e-01 -3.240784e-01 0.000000e+00
 2.281533e-01 -2.911098e-01 0.000000e+00
 1.808718e-01 -2.824792e-01 0.000000e+00
 2.739255e-02 -2.828023e-01 0.000000e+00
 8.318518e-02 -3.418160e-01 0.000000e+00
 0.000000e+00 0.000000e+00 0.000000e+00
 4.049515e-02 -3.903083e-01 0.000000e+00
 1.132309e-02 -2.255892e-01 0.000000e+00
 1.337618e-02 -3.246838e-01 0.000000e+00
 3.351543e-03 -1.754343e-01 0.000000e+00
 6.149428e-03 -2.075261e-01 0.000000e+00
 2.104312e-03 -1.690992e-01 0.000000e+00
 0.000000e+00 0.000000e+00 0.000000e+00
 2.734496e-03 -4.530025e-01 0.000000e+00
 2.038091e-03 -4.068994e-01 0.000000e+00
 1.877689e-03 -4.298065e-01 0.000000e+00
 2.479181e-01 2.559375e-03 0.000000e+00
 1.026449e-01 6.226869e-04 0.000000e+00
 2.925687e-01 1.122418e-03 0.000000e+00
 1.081351e-01 2.446526e-04 0.000000e+00
 2.234290e-01 5.900252e-04 0.000000e+00
 3.453510e-01 -3.406412e-03 0.000000e+00
 1.914719e-01 3.300294e-04 0.000000e+00
 2.361602e-01 -8.263594e-04 0.000000e+00
 3.001602e-01 7.919135e-03 0.000000e+00
 1.380176e-01 2.738670e-03 0.000000e+00
 2.050275e-01 3.568836e-03 0.000000e+00
 3.126772e-01 5.511277e-04 0.000000e+00
 1.805012e-01 4.318125e-04 0.000000e+00
 0.000000e+00 0.000000e+00 0.000000e+00
 1.317200e-01 3.594066e-03 0.000000e+00
 0.000000e+00 0.000000e+00 0.000000e+00
 3.211560e-03 -1.067598e-01 0.000000e+00
 2.731554e-03 -1.151327e-01 0.000000e+00
 0.000000e+00 0.000000e+00 0.000000e+00
 2.103746e-02 -2.687306e-01 0.000000e+00
 1.818237e-02 -2.870188e-01 0.000000e+00
 3.133216e-02 -3.334729e-01 0.000000e+00
 8.203963e-04 -1.930445e-01 0.000000e+00
 1.447720e-03 -1.953971e-01 0.000000e+00
 0.000000e+00 0.000000e+00 0.000000e+00
 2.880860e-02 -1.961596e-01 0.000000e+00
 5.671700e-03 -8.743550e-02 0.000000e+00
 1.160944e-02 -1.434528e-01 0.000000e+00
 4.718379e-01 3.297488e-03 0.000000e+00
 4.763493e-01 2.236897e-03 0.000000e+00
 4.623485e-01 2.049854e-03 0.000000e+00
 1.502037e-01 4.556139e-03 0.000000e+00
 1.528100e-01 5.140079e-03 0.000000e+00
 0.000000e+00 0.000000e+00 0.000000e+00
 5.756834e-03 -7.327533e-02 0.000000e+00
 0.000000e+00 0.000000e+00 0.000000e+00
 1.032965e-02 -6.207145e-02 0.000000e+00
 1.029129e-02 -8.131703e-02 0.000000e+00
 0.000000e+00 0.000000e+00 0.000000e+00
 3.099073e-03 -4.759024e-01 0.000000e+00
 3.115213e-03 -4.742995e-01 0.000000e+00
 2.545050e-03 -4.764393e-01 0.000000e+00
 1.878716e-03 -4.101818e-01 0.000000e+00
 2.526909e-03 -4.602914e-01 0.000000e+00
 2.056836e-03 -4.473768e-01 0.000000e+00
 3.368634e-01 8.241995e-04 0.000000e+00
 2.371566e-01 3.090708e-04 0.000000e+00
 1.817897e-01 6.488067e-04 0.000000e+00
 1.830680e-01 7.510009e-04 0.000000e+00
 0.000000e+00 0.000000e+00 0.000000e+00
 4.831637e-01 -8.961744e-03 0.000000e+00
 4.806600e-01 -2.361941e-02 0.000000e+00
 4.881949e-01 -1.518248e-02 0.000000e+00
 4.742457e-01 2.673944e-03 0.000000e+00
 4.769108e-01 1.642528e-03 0.000000e+00
 2.008766e-03 -3.779387e-01 0.000000e+00
 1.215024e-03 -3.364231e-01 0.000000e+00
 6.678005e-04 -2.385405e-01 0.000000e+00
 2.464976e-01 -1.622382e-01 0.000000e+00
 2.100617e-01 -1.944215e-01 0.000000e+00
 2.623808e-01 -2.142655e-01 0.000000e+00
 1.609560e-01 -1.779104e-01 0.000000e+00
 1.709073e-01 -2.281741e-01 0.000000e+00
 6.421406e-02 -4.397237e-01 0.000000e+00
 4.611286e-02 -4.509163e-01 0.000000e+00
 6.126938e-02 -4.605804e-01 0.000000e+00
 3.918065e-01 1.875337e-03 0.000000e+00
 4.182447e-01 1.547005e-03 0.000000e+00
 4.735452e-01 -1.823411e-02 0.000000e+00
 4.885819e-01 -2.410063e-02 0.000000e+00
 4.884008e-01 -3.526716e-02 0.000000e+00
 4.139240e-01 3.107993e-03 0.000000e+00
 4.579400e-01 3.424326e-03 0.000000e+00
 4.329287e-01 1.923702e-03 0.000000e+00
 2.899440e-02 -4.775224e-01 0.000000e+00
 3.979487e-02 -4.764594e-01 0.000000e+00
 3.218227e-02 -4.736669e-01 0.000000e+00
 3.139195e-03 -3.921823e-01 0.000000e+00
 1.658983e-03 -3.051252e-01 0.000000e+00
 4.681203e-01 -1.301046e-01 0.000000e+00
 4.442957e-01 -1.783113e-01 0.000000e+00
 4.722059e-01 -1.576822e-01 0.000000e+00
 6.563480e-03 -1.943275e-02 0.000000e+00
 7.307008e-03 -3.481604e-02 0.000000e+00
 0.000000e+00 0.000000e+00 0.000000e+00
 4.442945e-01 1.067755e-03 0.000000e+00
 7.650306e-02 -1.737272e-01 0.000000e+00
 1.117262e-01 -1.547226e-01 0.000000e+00
 6.500363e-02 -1.261865e-01 0.000000e+00
 4.730727e-01 -9.574947e-02 0.000000e+00
 4.895305e-01 -6.450027e-02 0.000000e+00
 4.772219e-01 -5.983654e-02 0.000000e+00
 4.171939e-01 -9.708780e-02 0.000000e+00
 4.276868e-01 -6.109851e-02 0.000000e+00
 3.905920e-01 -7.034991e-02 0.000000e+00
 2.699295e-03 -3.898096e-01 0.000000e+00
 1.219754e-03 -3.341736e-01 0.000000e+00
 6.371982e-03 -4.705939e-01 0.000000e+00
 9.711446e-03 -4.644811e-01 0.000000e+00
 8.656763e-03 -4.760264e-01 0.000000e+00
 2.377840e-02 -4.398405e-01 0.000000e+00
 2.985936e-02 -4.623239e-01 0.000000e+00
 3.485354e-02 -4.489994e-01 0.000000e+00
 3.823774e-02 -2.806447e-01 0.000000e+00
 5.937244e-02 -3.453364e-01 0.000000e+00
 6.344652e-02 -3.121851e-01 0.000000e+00
 1.226004e-01 -4.367229e-01 0.000000e+00
 1.264837e-01 -3.907929e-01 0.000000e+00
 9.188500e-02 -4.099444e-01 0.000000e+00
 3.007642e-01 -4.263706e-01 0.000000e+00
 2.100346e-01 -4.237084e-01 0.000000e+00
 2.991469e-01 1.384468e-03 0.000000e+00
 0.000000e+00 0.000000e+00 0.000000e+00
 3.948969e-01 4.800765e-03 0.000000e+00
 3.321815e-01 2.038558e-03 0.000000e+00
 4.430620e-01 3.242531e-03 0.000000e+00
 4.705038e-01 3.205985e-03 0.000000e+00
 4.713238e-01 3.949577e-03 0.000000e+00
 4.742053e-02 -3.576167e-01 0.000000e+00
 7.147063e-02 -3.809055e-01 0.000000e+00
 1.444848e-02 -4.458578e-01 0.000000e+00
 1.628530e-02 -4.298412e-01 0.000000e+00
 1.096418e-02 -4.132869e-01 0.000000e+00
 7.792768e-02 -4.734651e-01 0.000000e+00
 8.792880e-02 -4.800496e-01 0.000000e+00
 1.060988e-01 -4.642815e-01 0.000000e+00
 4.704494e-01 4.799312e-03 0.000000e+00
 4.786409e-01 4.754325e-03 0.000000e+00
 4.725688e-01 6.262203e-03 0.000000e+00
 4.321278e-01 -1.230680e-02 0.000000e+00
 4.506528e-01 -6.520789e-03 0.000000e+00
 3.972278e-01 -5.008718e-03 0.000000e+00
 4.746158e-01 4.947216e-03 0.000000e+00
 4.760246e-01 6.375549e-03 0.000000e+00
 4.819818e-01 3.438263e-03 0.000000e+00
 3.417647e-01 -1.856473e-01 0.000000e+00
 3.813112e-01 -1.447487e-01 0.000000e+00
 3.409697e-01 -1.418854e-01 0.000000e+00
 4.752237e-01 -1.155996e-01 0.000000e+00
 4.642310e-01 -1.856697e-01 0.000000e+00
 1.753351e-01 -9.173417e-02 0.000000e+00
 2.324598e-01 -1.101093e-01 0.000000e+00
 1.988396e-01 -6.100674e-02 0.000000e+00
 1.836530e-01 -2.241736e-02 0.000000e+00
 1.291022e-01 -7.178468e-03 0.000000e+00
 1.354340e-01 -2.564392e-01 0.000000e+00
 9.646778e-02 -2.251861e-01 0.000000e+00
 1.048968e-01 -2.755504e-01 0.000000e+00
 4.546206e-01 -5.467970e-02 0.000000e+00
 4.265535e-01 -4.011761e-02 0.000000e+00
 8.316138e-03 -4.758813e-01 0.000000e+00
 1.313684e-02 -4.771188e-01 0.000000e+00
 1.577977e-02 -4.470235e-01 0.000000e+00
 1.696788e-02 -4.712426e-01 0.000000e+00
 1.264496e-02 -4.543901e-01 0.000000e+00
 1.804330e-02 -3.762680e-01 0.000000e+00
 2.714907e-02 -3.895156e-01 0.000000e+00
 1.708367e-02 -3.342596e-01 0.000000e+00
 5.095584e-03 -4.688818e-01 0.000000e+00
 9.269993e-02 -3.809523e-02 0.000000e+00
 7.726866e-02 -6.469175e-02 0.000000e+00
 1.252358e-01 -7.732021e-02 0.000000e+00
 3.039772e-02 -8.633673e-02 0.000000e+00
 5.636902e-02 -8.091155e-02 0.000000e+00
 6.444470e-03 -3.892299e-01 0.000000e+00
 6.655044e-03 -3.578782e-01 0.000000e+00
 1.131039e-02 -4.569099e-01 0.000000e+00
 6.597766e-03 -4.356521e-01 0.000000e+00
 7.487200e-03 -4.590227e-01 0.000000e+00
 4.619720e-01 -2.309298e-02 0.000000e+00
 4.221477e-01 -1.929151e-02 0.000000e+00
 2.791512e-01 -1.811830e-02 0.000000e+00
 3.416319e-01 -3.734967e-02 0.000000e+00
 3.486811e-01 -2.393292e-02 0.000000e+00
 7.031522e-02 -4.659859e-01 0.000000e+00
 1.102969e-01 -4.771693e-01 0.000000e+00
 4.235899e-01 -2.812874e-01 0.000000e+00
 1.799267e-01 7.190727e-04 0.000000e+00
 0.000000e+00 0.000000e+00 0.000000e+00
 3.889533e-01 -2.100854e-02 0.000000e+00
 1.107490e-01 -3.062270e-01 0.000000e+00
 8.667203e-02 -3.308867e-01 0.000000e+00
 1.145755e-01 -3.401450e-01 0.000000e+00
 2.713499e-02 -1.404455e-01 0.000000e+00
 4.215628e-02 -1.987733e-01 0.000000e+00
 5.301164e-02 -1.808536e-01 0.000000e+00
 8.609787e-03 -4.313028e-01 0.000000e+00
 4.907401e-03 -4.046462e-01 0.000000e+00
 5.525102e-03 -3.714291e-01 0.000000e+00
 2.795220e-01 -3.165802e-01 0.000000e+00
 2.537740e-01 -3.638145e-01 0.000000e+00
 3.096956e-01 -3.395840e-01 0.000000e+00
 3.548007e-02 -4.251633e-01 0.000000e+00
 3.713343e-02 -3.968328e-01 0.000000e+00
 3.756038e-03 -8.694649e-02 0.000000e+00
 3.389278e-03 -9.730586e-02 0.000000e+00
 0.000000e+00 0.000000e+00 0.000000e+00
 5.226207e-02 -4.122003e-01 0.000000e+00
 7.201924e-02 -4.237908e-01 0.000000e+00
 2.022620e-01 -3.793301e-01 0.000000e+00
 1.612578e-01 -3.616619e-01 0.000000e+00
 5.957332e-02 -2.777240e-01 0.000000e+00
 7.764432e-02 -2.668437e-01 0.000000e+00
 5.331853e-02 -2.460168e-01 0.000000e+00
 4.596273e-01 1.390238e-03 0.000000e+00
 4.786617e-01 2.850391e-03 0.000000e+00
 3.991878e-01 -7.542586e-03 0.000000e+00
 3.729905e-01 7.013614e-03 0.000000e+00
 4.439937e-01 -3.186649e-03 0.000000e+00
 4.137665e-01 -1.681270e-01 0.000000e+00
 4.065740e-01 -1.264601e-01 0.000000e+00
 4.860447e-01 -6.503660e-02 0.000000e+00
 4.424656e-01 -5.558293e-02 0.000000e+00
 2.837792e-01 -1.227968e-01 0.000000e+00
 3.638117e-01 -3.267312e-01 0.000000e+00
 3.270072e-01 -3.864538e-01 0.000000e+00
 0.000000e+00 0.000000e+00 0.000000e+00
 5.292623e-02 -4.768103e-01 0.000000e+00
 4.547976e-02 -4.764851e-01 0.000000e+00
 3.101426e-02 -4.668632e-01 0.000000e+00
 4.006057e-02 -4.643617e-01 0.000000e+00
 1.727357e-02 -4.746132e-01 0.000000e+00
 1.801804e-02 -4.770008e-01 0.000000e+00
 4.168849e-01 9.445427e-03 0.000000e+00
 4.451596e-01 8.625178e-03 0.000000e+00
 3.880310e-01 1.042106e-02 0.000000e+00
 4.830185e-01 -5.506868e-03 0.000000e+00
 4.587988e-01 2.397135e-04 0.000000e+00
 4.696547e-01 1.909616e-03 0.000000e+00
 3.911325e-01 2.449689e-03 0.000000e+00
 3.983616e-01 2.467745e-03 0.000000e+00
 2.661833e-01 8.524034e-03 0.000000e+00
 3.552524e-01 1.021752e-02 0.000000e+00
 4.520006e-01 7.804692e-03 0.000000e+00
 1.445861e-01 -1.279886e-01 0.000000e+00
 1.438099e-01 -4.703953e-01 0.000000e+00
 1.638725e-01 -4.764202e-01 0.000000e+00
 9.825833e-03 -3.632909e-01 0.000000e+00
 1.648234e-02 -3.889904e-01 0.000000e+00
 1.631944e-02 -4.253717e-01 0.000000e+00
 3.782528e-03 -2.670816e-01 0.000000e+00
 4.392271e-02 -4.463536e-01 0.000000e+00
 2.544582e-02 -4.083896e-01 0.000000e+00
 2.188931e-01 -4.527974e-02 0.000000e+00
 2.426525e-01 -2.693362e-02 0.000000e+00
 2.436985e-01 -4.742275e-02 0.000000e+00
 7.789409e-03 -2.054990e-01 0.000000e+00
 1.475385e-02 -2.928001e-01 0.000000e+00
 6.331198e-03 -2.786423e-01 0.000000e+00
 7.384961e-03 -3.292900e-01 0.000000e+00
 1.147653e-02 -3.523933e-01 0.000000e+00
 2.276364e-02 -4.696552e-01 0.000000e+00
 1.613818e-02 -4.643257e-01 0.000000e+00
 1.783938e-02 -4.068061e-01 0.000000e+00
 4.711731e-01 -5.827263e-03 0.000000e+00
 4.541555e-01 -1.869314e-03 0.000000e+00
 3.897766e-01 1.723368e-03 0.000000e+00
 3.762626e-01 4.528623e-04 0.000000e+00
 4.313901e-01 7.562302e-04 0.000000e+00
 4.535114e-03 -4.416088e-01 0.000000e+00
 4.226205e-03 -4.676676e-01 0.000000e+00
 2.169808e-03 -3.113050e-01 0.000000e+00
 4.261794e-03 -3.924623e-01 0.000000e+00
 1.542468e-01 -4.532907e-01 0.000000e+00
 1.996994e-01 -4.462908e-01 0.000000e+00
 2.565362e-01 -4.343678e-01 0.000000e+00
 2.187744e-01 -4.081449e-01 0.000000e+00
 3.421609e-01 -2.199036e-02 0.000000e+00
 4.480993e-01 -1.092011e-01 0.000000e+00
 4.087160e-01 7.153320e-03 0.000000e+00
 4.751587e-01 -3.880499e-02 0.000000e+00
 3.173073e-01 -2.283711e-01 0.000000e+00
 2.730456e-01 -2.692474e-01 0.000000e+00