<?xml version="1.0"?>
<VTKFile type="UnstructuredGrid"  version="0.1"  >
<UnstructuredGrid>
<Piece  NumberOfPoints="505" NumberOfCells="928">
<Points>
<DataArray  type="Float32"  NumberOfComponents="3"  format="ascii">
0 0 0
1 0 0
0 1 0
1 0.5 0
0.5 0.5 0
0.5 1 0
0.1 0 0
0.2 0 0
0.3 0 0
0.4 0 0
0.5 0 0
0.6 0 0
0.7 0 0
0.8 0 0
0.9 0 0
0 0.9 0
0 0.8 0
0 0.7 0
0 0.6 0
0 0.5 0
0 0.4 0
0 0.3 0
0 0.2 0
0 0.1 0
0.9 0.5 0
0.8 0.5 0
0.7 0.5 0
0.6 0.5 0
0.5 0.6 0
0.5 0.7 0
0.5 0.8 0
0.5 0.9 0
0.1 1 0
0.2 1 0
0.3 1 0
0.4 1 0
1 0.1 0
1 0.2 0
1 0.3 0
1 0.4 0
0.300178 0.296564 0
0.247566 0.664879 0
0.639694 0.259804 0
0.06564 0.06472 0
0.04439 0.954144 0
0.932418 0.064715 0
0.951013 0.456419 0
0.437622 0.939659 0
0.195334 0.464441 0
0.483382 0.329596 0
0.834786 0.236295 0
0.307228 0.81139 0
0.178229 0.173372 0
0.366998 0.134199 0
0.547485 0.14214 0
0.124832 0.74927 0
0.160163 0.896658 0
0.342556 0.535243 0
0.147651 0.342018 0
0.729803 0.127878 0
0.725981 0.357775 0
0.121369 0.600441 0
0.372954 0.70814 0
0.908503 0.151525 0
0.89851 0.333305 0
0.556275 0.400898 0
0.259184 0.092178 0
0.46329 0.194362 0
0.423773 0.869712 0
0.22823 0.818162 0
0.081292 0.144905 0
0.082979 0.831935 0
0.549999 0.065419 0
0.371537 0.407588 0
0.642628 0.097865 0
0.459835 0.086595 0
0.108565 0.418567 0
0.273082 0.902112 0
0.256598 0.556659 0
0.11951 0.509541 0
0.234147 0.370527 0
0.097453 0.253261 0
0.638438 0.342389 0
0.554656 0.224779 0
0.373432 0.237603 0
0.339663 0.62579 0
0.27079 0.747786 0
0.733958 0.266592 0
0.928527 0.244458 0
0.853116 0.071497 0
0.818426 0.404817 0
0.280194 0.200604 0
0.417859 0.565185 0
0.147241 0.079056 0
0.389149 0.789957 0
0.42808 0.654642 0
0.343469 0.059202 0
0.086765 0.684153 0
0.162043 0.675011 0
0.809252 0.14201 0
0.364337 0.928607 0
0.077532 0.916553 0
0.159064 0.807906 0
0.302124 0.454032 0
0.205909 0.272176 0
0.449664 0.407415 0
0.66041 0.423241 0
0.562201 0.303789 0
0.802658 0.320211 0
0.614551 0.182931 0
0.390944 0.331035 0
0.687136 0.18846 0
0.070577 0.342498 0
0.741087 0.437361 0
0.176989 0.547528 0
0.710251 0.07409 0
0.192845 0.608574 0
0.171114 0.398277 0
0.058959 0.753084 0
0.904 0.425508 0
0.438039 0.730373 0
0.057223 0.475897 0
0.058502 0.552106 0
0.330493 0.750997 0
0.312295 0.699131 0
0.684882 0.307111 0
0.053312 0.627311 0
0.198798 0.743695 0
0.392326 0.069953 0
0.351519 0.860283 0
0.397134 0.477694 0
0.319385 0.371198 0
0.767351 0.069505 0
0.441954 0.271171 0
0.759504 0.192785 0
0.855661 0.457701 0
0.500847 0.264652 0
0.916209 0.0323575 0
0.966209 0.0323575 0
0.95 0 0
0.578137 0.450449 0
0.528137 0.450449 0
0.55 0.5 0
0.03282 0.08236 0
0.03282 0.03236 0
0 0.05 0
0.502969 0.404157 0
0.474832 0.453708 0
0.468811 0.91983 0
0.468811 0.96983 0
0.5 0.95 0
0.072195 0.977072 0
0.022195 0.977072 0
0.05 1 0
0.022195 0.927072 0
0 0.95 0
0.060961 0.935348 0
0.038766 0.908276 0
0.106441 0.071888 0
0.123621 0.039528 0
0.08282 0.03236 0
0.0414895 0.815967 0
0.0414895 0.865968 0
0 0.85 0
0.173621 0.039528 0
0.15 0 0
0.05 0 0
0.301327 0.07569 0
0.321735 0.029601 0
0.279592 0.046089 0
0.070969 0.792509 0
0.0294795 0.776542 0
0.0294795 0.726542 0
0 0.75 0
0.114267 0.111981 0
0.073466 0.104813 0
0.229592 0.046089 0
0.25 0 0
0.371735 0.029601 0
0.35 0 0
0.479917 0.0432975 0
0.429918 0.0432975 0
0.45 0 0
0.461562 0.140479 0
0.413416 0.110397 0
0.415144 0.16428 0
0.574999 0.0327095 0
0.525 0.0327095 0
0.55 0 0
0.596313 0.081642 0
0.621314 0.0489325 0
0.927507 0.440964 0
0.902 0.462754 0
0.925507 0.47821 0
0.0700385 0.655732 0
0.026656 0.663655 0
0.0433825 0.692076 0
0.026656 0.613655 0
0 0.65 0
0.276766 0.370862 0
0.309781 0.333881 0
0.267162 0.333545 0
0.458929 0.582593 0
0.458929 0.532593 0
0.5 0.55 0
0.422969 0.609913 0
0.46404 0.627321 0
0.43306 0.692508 0
0.46902 0.715186 0
0.46404 0.677321 0
0.46902 0.765186 0
0.5 0.75 0
0.180082 0.948329 0
0.130082 0.948329 0
0.15 1 0
0.87983 0.441605 0
0.87783 0.478851 0
0.975507 0.42821 0
0.975507 0.47821 0
1 0.45 0
0.676439 0.0859775 0
0.705125 0.037045 0
0.671314 0.0489325 0
0.779756 0.421089 0
0.770544 0.46868 0
0.809213 0.452408 0
0.738801 0.0717975 0
0.733675 0.0347525 0
0.95 0.5 0
0.720544 0.46868 0
0.75 0.5 0
0.029251 0.526053 0
0.029251 0.576053 0
0 0.55 0
0.089006 0.530824 0
0.0899355 0.576273 0
0.12044 0.554991 0
0.461886 0.884856 0
0.461886 0.834856 0
0.5 0.85 0
0.089571 0.380533 0
0.0352885 0.371249 0
0.0542825 0.409284 0
0.918515 0.197991 0
0.964263 0.222229 0
0.954252 0.175762 0
0.630205 0.46162 0
0.680205 0.46162 0
0.65 0.5 0
0.0352885 0.321249 0
0 0.35 0
0.0487265 0.226631 0
0.0487265 0.276631 0
0 0.25 0
0.286541 0.951056 0
0.236541 0.951056 0
0.25 1 0
0.382169 0.964303 0
0.332168 0.964303 0
0.35 1 0
0.966209 0.0823575 0
1 0.05 0
0.876558 0.0357485 0
0.826558 0.0357485 0
0.85 0 0
0.710547 0.227526 0
0.663415 0.224132 0
0.686826 0.263198 0
0.964263 0.272229 0
1 0.25 0
0.40098 0.934133 0
0.418811 0.96983 0
0.45 1 0
0.326813 0.219104 0
0.290186 0.248584 0
0.336805 0.267084 0
0.243052 0.23639 0
0.253043 0.28437 0
0.224721 0.582616 0
0.220205 0.636726 0
0.252082 0.610769 0
0.92046 0.10812 0
0.954252 0.125762 0
0.66166 0.32475 0
0.662288 0.283458 0
0.639066 0.301096 0
0.949255 0.366653 0
0.949255 0.316653 0
1 0.35 0
0.291542 0.723459 0
0.27993 0.682005 0
0.259178 0.706333 0
0.394055 0.89916 0
0.430698 0.904686 0
0.531524 0.28422 0
0.492115 0.297124 0
0.522791 0.316692 0
0.040646 0.122453 0
0.040646 0.172453 0
0 0.15 0
1 0.15 0
0.151681 0.262718 0
0.192069 0.222774 0
0.137841 0.213317 0
0.558428 0.264284 0
0.600947 0.281797 0
0.597175 0.242291 0
0.508973 0.20957 0
0.551071 0.183459 0
0.505387 0.168251 0
0.118847 0.906605 0
0.088766 0.958276 0
0.3123 0.881198 0
0.329373 0.835836 0
0.290155 0.856751 0
0.18042 0.709353 0
0.223182 0.704287 0
0.204805 0.669945 0
0.114037 0.464054 0
0.157422 0.486991 0
0.15195 0.441504 0
0.279361 0.505346 0
0.248729 0.459236 0
0.225966 0.51055 0
0.423399 0.442555 0
0.448567 0.488847 0
0.892767 0.068106 0
0.65 0 0
0.901255 0.379406 0
0.952 0.412754 0
0.858877 0.146767 0
0.822019 0.189153 0
0.871644 0.19391 0
0.14825 0.528535 0
0.186162 0.505985 0
0.178931 0.775801 0
0.161815 0.746482 0
0.141948 0.778588 0
0.29813 0.591225 0
0.34111 0.580516 0
0.299577 0.545951 0
0.913519 0.288882 0
0.881657 0.240376 0
0.866648 0.2848 0
0.664882 0.143162 0
0.708469 0.158169 0
0.686215 0.112871 0
0.768308 0.293401 0
0.818722 0.278253 0
0.784372 0.251443 0
0.407693 0.254387 0
0.452622 0.232766 0
0.418361 0.215983 0
0.559238 0.352343 0
0.519829 0.365247 0
0.269689 0.146391 0
0.323596 0.167402 0
0.313091 0.113188 0
0.367897 0.0645775 0
0.396163 0.0349765 0
0.220028 0.321352 0
0.17678 0.307097 0
0.190899 0.356272 0
0.584604 0.203855 0
0.581018 0.162535 0
0.250656 0.860137 0
0.267729 0.814776 0
0.359821 0.770477 0
0.31886 0.781193 0
0.348189 0.800674 0
0.124404 0.679582 0
0.141706 0.637726 0
0.104067 0.642297 0
0.216622 0.899385 0
0.203213 0.085617 0
0.162735 0.126214 0
0.218707 0.132775 0
0.0893725 0.199083 0
0.129761 0.159139 0
0.121022 0.819921 0
0.103905 0.790602 0
0.193647 0.813034 0
0.159614 0.852282 0
0.194196 0.85741 0
0.650843 0.185696 0
0.628589 0.140398 0
0.504917 0.076007 0
0.50366 0.114367 0
0.548742 0.103779 0
0.378761 0.595487 0
0.380208 0.550214 0
0.466523 0.368506 0
0.783675 0.0347525 0
0.75 0 0
0.595056 0.120002 0
0.20263 0.384402 0
0.183224 0.431359 0
0.214741 0.417484 0
0.084015 0.29788 0
0.109114 0.342258 0
0.122552 0.29764 0
0.370334 0.82512 0
0.387646 0.864998 0
0.406461 0.829835 0
0.355164 0.351116 0
0.345461 0.389393 0
0.38124 0.369312 0
0.177444 0.641792 0
0.157107 0.604507 0
0.0286115 0.437949 0
0.0286115 0.487949 0
0 0.45 0
0.184917 0.578051 0
0.216794 0.552094 0
0.310754 0.412615 0
0.268135 0.41228 0
0.13984 0.408422 0
0.159382 0.370147 0
0.128108 0.380293 0
0.784378 0.167398 0
0.797145 0.21454 0
0.649424 0.382815 0
0.693196 0.390508 0
0.682209 0.350082 0
0.471401 0.267911 0
0.482069 0.229507 0
0.600319 0.323089 0
0.597356 0.371644 0
0.370215 0.185901 0
0.420304 0.369225 0
0.410601 0.407502 0
0.5 0.65 0
0.293615 0.645334 0
0.325979 0.66246 0
0.342624 0.703635 0
0.356309 0.666965 0
0.24951 0.782974 0
0.289009 0.779588 0
0.810542 0.362514 0
0.76432 0.338993 0
0.772204 0.381296 0
0.70942 0.286852 0
0.705431 0.332443 0
0.729969 0.312184 0
0.831184 0.106754 0
0.88081 0.111511 0
0.700748 0.430301 0
0.733534 0.397568 0
0.850584 0.326758 0
0.229212 0.186988 0
0.407496 0.52144 0
0.369845 0.506468 0
0.413594 0.760165 0
0.405497 0.719256 0
0.381051 0.749049 0
0.444574 0.794979 0
0.383872 0.640216 0
0.400517 0.681391 0
0.355233 0.0967005 0
0.42608 0.078274 0
0.379662 0.102076 0
0.055907 0.589708 0
0.0873405 0.613876 0
0.072862 0.718619 0
0.0918955 0.751177 0
0.105798 0.716711 0
0.234794 0.74574 0
0.213514 0.780928 0
0.143437 0.712141 0
0.72332 0.190623 0
0.744653 0.160332 0
0.788301 0.105758 0
0.748577 0.0986915 0
0.769527 0.134944 0
0.357928 0.894445 0
0.318709 0.915359 0
0.0802555 0.874244 0
0.121571 0.864297 0
0.32234 0.494638 0
0.349629 0.465863 0
0.384335 0.442641 0
0.336831 0.43081 0
0.608343 0.412069 0
0.527752 0.244716 0
0.858468 0.369061 0
0.627123 0.221367 0
0.382188 0.284319 0
0.345561 0.3138 0
0.437163 0.330315 0
0.746731 0.229689 0
0.149179 0.573985 0
0.720027 0.100984 0
0.810234 0.070501 0
0.861213 0.415162 0
0.827831 0.478851 0
0.85 0.5 0
0.082894 0.447232 0
0.0883665 0.492719 0
0.0578625 0.514002 0
0.300642 0.749391 0
0.351723 0.729569 0
0.321394 0.725064 0
0.416449 0.301103 0
0.462668 0.300384 0
0.837044 0.431259 0
</DataArray>
</Points>
<Cells>
<DataArray  type="UInt32"  Name="connectivity"  format="ascii">
1 138 139 
14 137 139 
45 137 138 
137 138 139 
4 141 142 
27 140 142 
65 140 141 
140 141 142 
0 144 145 
23 143 145 
43 143 144 
143 144 145 
4 141 147 
65 141 146 
105 146 147 
141 146 147 
5 149 150 
31 148 150 
47 148 149 
148 149 150 
2 152 153 
32 151 153 
44 151 152 
151 152 153 
2 152 155 
15 154 155 
44 152 154 
152 154 155 
15 154 157 
44 154 156 
101 156 157 
154 156 157 
6 159 160 
43 158 160 
93 158 159 
158 159 160 
15 162 163 
16 161 163 
71 161 162 
161 162 163 
6 159 165 
7 164 165 
93 159 164 
159 164 165 
[...]
<PointData  Vectors="u"> 
<DataArray  type="Float32"  Name="u"  NumberOfComponents="3" format="ascii">
 0.000000e+00 0.000000e+00 0.000000e+00
 0.000000e+00 0.000000e+00 0.000000e+00
 0.000000e+00 0.000000e+00 0.000000e+00
 0.000000e+00 0.000000e+00 0.000000e+00
 0.000000e+00 0.000000e+00 0.000000e+00
 0.000000e+00 0.000000e+00 0.000000e+00
 0.000000e+00 0.000000e+00 0.000000e+00
 0.000000e+00 0.000000e+00 0.000000e+00
 0.000000e+00 0.000000e+00 0.000000e+00
 0.000000e+00 0.000000e+00 0.000000e+00
 0.000000e+00 0.000000e+00 0.000000e+00
 0.000000e+00 0.000000e+00 0.000000e+00
 0.000000e+00 0.000000e+00 0.000000e+00
 0.000000e+00 0.000000e+00 0.000000e+00
 0.000000e+00 0.000000e+00 0.000000e+00
 0.000000e+00 0.000000e+00 0.000000e+00
 0.000000e+00 0.000000e+00 0.000000e+00
 0.000000e+00 0.000000e+00 0.000000e+00
 0.000000e+00 0.000000e+00 0.000000e+00
 0.000000e+00 0.000000e+00 0.000000e+00
 0.000000e+00 0.000000e+00 0.000000e+00
 0.000000e+00 0.000000e+00 0.000000e+00
 0.000000e+00 0.000000e+00 0.000000e+00
 0.000000e+00 0.000000e+00 0.000000e+00
 0.000000e+00 0.000000e+00 0.000000e+00
 0.000000e+00 0.000000e+00 0.000000e+00
 0.000000e+00 0.000000e+00 0.000000e+00
 0.000000e+00 0.000000e+00 0.000000e+00
 0.000000e+00 0.000000e+00 0.000000e+00
 0.000000e+00 0.000000e+00 0.000000e+00
 0.000000e+00 0.000000e+00 0.000000e+00
 0.000000e+00 0.000000e+00 0.000000e+00
 4.459850e-04 -9.676335e-03 0.000000e+00
 8.890059e-04 2.051566e-02 0.000000e+00
 1.009643e-03 1.631795e-02 0.000000e+00
 6.129288e-04 -1.852254e-02 0.000000e+00
 7.521199e-03 5.030674e-03 0.000000e+00
 -2.112673e-02 1.016082e-02 0.000000e+00
 -1.587639e-02 1.059220e-02 0.000000e+00
 2.058461e-02 5.444169e-03 0.000000e+00
 -1.402351e-02 -3.826501e-03 0.000000e+00
 7.145369e-03 2.565849e-02 0.000000e+00
 -2.200681e-02 3.590605e-03 0.000000e+00
 4.567641e-03 -4.518644e-03 0.000000e+00
 1.963291e-04 -3.315467e-02 0.000000e+00
 2.765272e-02 2.136684e-03 0.000000e+00
 4.077776e-02 1.479717e-03 0.000000e+00
 5.429878e-04 -3.647486e-02 0.000000e+00
 -2.990551e-03 1.959264e-02 0.000000e+00
 -3.188747e-02 -3.179640e-03 0.000000e+00
 -1.986469e-02 7.956530e-03 0.000000e+00
 5.757604e-03 1.462120e-02 0.000000e+00
 -7.925853e-04 -3.163656e-03 0.000000e+00
 6.846719e-03 -9.112925e-03 0.000000e+00
 8.263101e-03 -2.457166e-03 0.000000e+00
 3.727432e-03 6.607706e-03 0.000000e+00
 2.040433e-03 1.500987e-02 0.000000e+00
 -1.945704e-03 9.578544e-03 0.000000e+00
 -7.298825e-04 6.502156e-03 0.000000e+00
 8.200225e-03 2.598300e-03 0.000000e+00
 -1.356111e-02 3.024949e-03 0.000000e+00
 3.663712e-03 9.278984e-03 0.000000e+00
 8.738373e-03 -1.183931e-02 0.000000e+00
 -9.278935e-03 6.439258e-03 0.000000e+00
 -1.222840e-02 7.381227e-03 0.000000e+00
 2.593477e-04 -7.201194e-03 0.000000e+00
 1.072878e-02 -5.525716e-03 0.000000e+00
 -5.973054e-03 -6.495980e-03 0.000000e+00
 1.548737e-03 -3.221431e-02 0.000000e+00
 4.832913e-03 2.276019e-02 0.000000e+00
 2.721767e-03 -7.997537e-03 0.000000e+00
 1.529653e-03 -1.622480e-02 0.000000e+00
 3.484946e-02 -1.778222e-03 0.000000e+00
 -2.655624e-02 6.261324e-03 0.000000e+00
 2.366542e-02 5.562516e-05 0.000000e+00
 2.552684e-02 -4.597768e-03 0.000000e+00
 1.559663e-03 2.758720e-03 0.000000e+00
 2.730817e-03 1.962306e-02 0.000000e+00
 5.221950e-05 2.650824e-02 0.000000e+00
 2.339730e-03 8.519878e-03 0.000000e+00
 -9.195405e-03 8.504251e-03 0.000000e+00
 1.124160e-03 -4.371682e-03 0.000000e+00
 -2.243704e-02 7.735607e-04 0.000000e+00
 -1.466364e-02 -7.558392e-04 0.000000e+00
 -1.234679e-02 -9.084077e-03 0.000000e+00
 8.685081e-03 5.822182e-03 0.000000e+00
 7.515915e-03 2.122516e-02 0.000000e+00
 -2.188961e-02 6.453491e-03 0.000000e+00
 -2.095907e-02 9.793414e-03 0.000000e+00
 2.845411e-02 1.412721e-03 0.000000e+00
 1.357572e-02 2.222344e-03 0.000000e+00
 -5.377870e-03 -8.181029e-03 0.000000e+00
 8.289314e-03 -4.657282e-02 0.000000e+00
 8.710613e-03 -3.702704e-03 0.000000e+00
 4.916427e-03 -1.726755e-02 0.000000e+00
 6.702195e-03 -4.861085e-02 0.000000e+00
 2.276403e-02 -3.947154e-03 0.000000e+00
 2.865306e-03 -9.550064e-03 0.000000e+00
 5.166002e-03 2.042706e-02 0.000000e+00
 -1.078944e-03 4.278602e-03 0.000000e+00
 1.616561e-03 -1.861543e-03 0.000000e+00
 7.111798e-04 -2.103282e-02 0.000000e+00
 3.753862e-03 1.626701e-02 0.000000e+00
 -1.582737e-02 1.775587e-02 0.000000e+00
 -5.017219e-03 7.230592e-04 0.000000e+00
 -1.687504e-02 -9.315178e-03 0.000000e+00
 1.944169e-02 -1.490843e-03 0.000000e+00
 -2.871874e-02 -7.303433e-04 0.000000e+00
 -1.878061e-02 6.195404e-03 0.000000e+00
 -5.500236e-03 1.525111e-03 0.000000e+00
 -2.846895e-02 -1.108069e-03 0.000000e+00
 -9.112088e-03 4.255776e-03 0.000000e+00
 1.785229e-03 -9.305989e-03 0.000000e+00
 2.848844e-02 1.205567e-04 0.000000e+00
 1.852642e-03 2.321875e-02 0.000000e+00
 3.229280e-02 4.384123e-04 0.000000e+00
 4.233927e-03 2.591380e-02 0.000000e+00
 -2.247742e-03 1.232004e-02 0.000000e+00
 1.431806e-03 -2.520551e-02 0.000000e+00
 2.911750e-02 2.426702e-03 0.000000e+00
 3.732455e-03 -4.545939e-02 0.000000e+00
 1.743762e-03 -1.554740e-02 0.000000e+00
 1.873353e-03 -1.752044e-02 0.000000e+00
 7.985809e-03 8.167885e-03 0.000000e+00
 9.265255e-03 1.413288e-02 0.000000e+00
 -2.445188e-02 4.195079e-03 0.000000e+00
 1.653444e-03 -2.228030e-02 0.000000e+00
 5.862290e-03 2.367533e-02 0.000000e+00
 2.545624e-02 -4.571129e-03 0.000000e+00
 3.568160e-03 2.276774e-03 0.000000e+00
 -6.168362e-03 -1.206790e-02 0.000000e+00
 -2.195523e-02 5.790244e-03 0.000000e+00
 3.211610e-02 7.325105e-04 0.000000e+00
 -2.240583e-02 -5.286662e-03 0.000000e+00
 -1.252464e-02 5.863118e-03 0.000000e+00
 3.698882e-02 5.577883e-04 0.000000e+00
 -2.294833e-02 -3.066812e-03 0.000000e+00
 3.225483e-02 5.867722e-04 0.000000e+00
 3.044500e-02 1.104648e-03 0.000000e+00
 0.000000e+00 0.000000e+00 0.000000e+00
 3.664248e-02 -5.269775e-03 0.000000e+00
 3.860959e-02 -1.931241e-02 0.000000e+00
 0.000000e+00 0.000000e+00 0.000000e+00
 1.877978e-03 -5.125905e-03 0.000000e+00
 1.712750e-03 -1.691610e-03 0.000000e+00
 0.000000e+00 0.000000e+00 0.000000e+00
 -4.862546e-03 -1.265925e-02 0.000000e+00
 2.412952e-02 -3.377877e-02 0.000000e+00
 2.313958e-04 -3.713337e-02 0.000000e+00
 1.697367e-04 -3.683376e-02 0.000000e+00
 0.000000e+00 0.000000e+00 0.000000e+00
 3.170685e-04 -2.384701e-02 0.000000e+00
 6.774588e-05 -2.856485e-02 0.000000e+00
 1.734792e-04 -3.248910e-02 0.000000e+00
 1.205969e-04 -2.811113e-02 0.000000e+00
 0.000000e+00 0.000000e+00 0.000000e+00
 4.069782e-04 -2.863915e-02 0.000000e+00
 3.110403e-04 -3.348606e-02 0.000000e+00
 7.157477e-03 -4.183809e-03 0.000000e+00
 8.493759e-03 -1.903859e-03 0.000000e+00
 5.172645e-03 -1.871592e-03 0.000000e+00
 5.921396e-04 -3.008865e-02 0.000000e+00
 4.502792e-04 -3.110910e-02 0.000000e+00
 0.000000e+00 0.000000e+00 0.000000e+00
 1.132910e-02 -1.807987e-03 0.000000e+00
 0.000000e+00 0.000000e+00 0.000000e+00
 0.000000e+00 0.000000e+00 0.000000e+00
 1.694995e-02 -5.034185e-03 0.000000e+00
 1.949860e-02 -1.680901e-03 0.000000e+00
 1.765421e-02 -2.629703e-03 0.000000e+00
 1.548868e-03 -2.121928e-02 0.000000e+00
 4.630915e-04 -2.888911e-02 0.000000e+00
 6.013236e-04 -2.751196e-02 0.000000e+00
 0.000000e+00 0.000000e+00 0.000000e+00
 5.023071e-03 -5.476031e-03 0.000000e+00
 3.971493e-03 -6.978344e-03 0.000000e+00
 1.446338e-02 -2.367005e-03 0.000000e+00
 0.000000e+00 0.000000e+00 0.000000e+00
 2.250037e-02 -1.529562e-03 0.000000e+00
 0.000000e+00 0.000000e+00 0.000000e+00
 3.248527e-02 -1.808497e-03 0.000000e+00
 2.942044e-02 -2.177980e-03 0.000000e+00
 0.000000e+00 0.000000e+00 0.000000e+00
 8.307885e-03 -6.488500e-03 0.000000e+00
 1.599068e-02 -7.204318e-03 0.000000e+00
 1.125519e-03 -8.764983e-03 0.000000e+00
 3.439638e-02 -6.811373e-04 0.000000e+00
 3.278412e-02 -1.034624e-03 0.000000e+00
 0.000000e+00 0.000000e+00 0.000000e+00
 3.056326e-02 -1.071860e-03 0.000000e+00
 3.697711e-02 -5.187589e-04 0.000000e+00
 3.672121e-02 1.958683e-03 0.000000e+00
 3.843561e-02 6.892569e-04 0.000000e+00
 3.201046e-02 3.667611e-04 0.000000e+00
 2.273099e-03 -1.664262e-02 0.000000e+00
 6.365769e-04 -2.496023e-02 0.000000e+00
 1.146268e-03 -2.750462e-02 0.000000e+00
 6.719602e-04 -2.328448e-02 0.000000e+00
 0.000000e+00 0.000000e+00 0.000000e+00
 -1.511948e-02 6.719998e-03 0.000000e+00
 -1.826979e-02 2.898701e-04 0.000000e+00
 -1.263047e-02 2.168627e-03 0.000000e+00
 5.630860e-03 -6.331430e-02 0.000000e+00
 1.604254e-02 -6.752899e-02 0.000000e+00
 0.000000e+00 0.000000e+00 0.000000e+00
 8.049599e-03 -4.953811e-02 0.000000e+00
 3.292882e-03 -5.550902e-02 0.000000e+00
 5.140636e-03 -4.707831e-02 0.000000e+00
 1.571937e-03 -4.449090e-02 0.000000e+00
 2.447769e-03 -4.983777e-02 0.000000e+00
 1.126317e-03 -4.180225e-02 0.000000e+00
 0.000000e+00 0.000000e+00 0.000000e+00
 1.281343e-03 1.843438e-02 0.000000e+00
 9.364851e-04 4.721067e-03 0.000000e+00
 6.959732e-04 1.155589e-02 0.000000e+00
 3.458676e-02 1.305675e-03 0.000000e+00
 3.051002e-02 1.838372e-04 0.000000e+00
 3.449013e-02 3.449973e-03 0.000000e+00
 3.395139e-02 8.143918e-04 0.000000e+00
 4.246511e-02 2.368144e-03 0.000000e+00
 2.810716e-02 4.151066e-04 0.000000e+00
 3.807987e-02 -2.015109e-04 0.000000e+00
 3.668820e-02 -1.941420e-04 0.000000e+00
 2.104350e-02 1.055820e-03 0.000000e+00
 3.382599e-02 -4.676533e-05 0.000000e+00
 3.529889e-02 3.958213e-04 0.000000e+00
 3.217459e-02 5.909436e-04 0.000000e+00
 3.552540e-02 -3.317512e-05 0.000000e+00
 0.000000e+00 0.000000e+00 0.000000e+00
 3.365105e-02 -2.747119e-04 0.000000e+00
 0.000000e+00 0.000000e+00 0.000000e+00
 8.046879e-04 -2.064227e-02 0.000000e+00
 7.867943e-04 -2.222338e-02 0.000000e+00
 0.000000e+00 0.000000e+00 0.000000e+00
 2.566287e-03 -3.971044e-03 0.000000e+00
 2.881348e-03 -4.301818e-03 0.000000e+00
 3.013255e-03 9.273237e-03 0.000000e+00
 4.400163e-04 -3.911010e-02 0.000000e+00
 7.799181e-04 -4.083898e-02 0.000000e+00
 0.000000e+00 0.000000e+00 0.000000e+00
 1.736068e-03 -3.643765e-03 0.000000e+00
 1.223614e-03 -1.559888e-02 0.000000e+00
 1.716815e-03 -1.467971e-02 0.000000e+00
 -1.875876e-02 8.625948e-03 0.000000e+00
 -2.146730e-02 1.031584e-02 0.000000e+00
 -1.728342e-02 8.636539e-03 0.000000e+00
 3.643148e-02 -1.701132e-03 0.000000e+00
 3.431184e-02 -6.976326e-04 0.000000e+00
 0.000000e+00 0.000000e+00 0.000000e+00
 1.184563e-03 -1.412891e-02 0.000000e+00
 0.000000e+00 0.000000e+00 0.000000e+00
 1.268782e-03 -1.114768e-02 0.000000e+00
 1.292821e-03 -1.183821e-02 0.000000e+00
 0.000000e+00 0.000000e+00 0.000000e+00
 1.543659e-03 1.815390e-02 0.000000e+00
 1.488871e-03 2.155154e-02 0.000000e+00
 1.001241e-03 2.104658e-02 0.000000e+00
 9.140908e-04 -9.645782e-03 0.000000e+00
 1.220785e-03 9.508425e-03 0.000000e+00
 8.857183e-04 4.064811e-03 0.000000e+00
 1.743056e-02 3.699287e-03 0.000000e+00
 2.954410e-02 2.189599e-03 0.000000e+00
 3.381297e-02 4.403921e-04 0.000000e+00
 3.491435e-02 2.549852e-04 0.000000e+00
 0.000000e+00 0.000000e+00 0.000000e+00
 -1.725960e-02 5.798264e-03 0.000000e+00
 -1.593258e-02 4.438570e-03 0.000000e+00
 -2.210182e-02 5.294147e-03 0.000000e+00
 -1.959448e-02 1.060081e-02 0.000000e+00
 -2.111348e-02 1.109029e-02 0.000000e+00
 1.075066e-03 -1.950142e-02 0.000000e+00
 5.626568e-04 -2.813319e-02 0.000000e+00
 2.765951e-04 -3.921926e-02 0.000000e+00
 -8.055841e-03 -9.670295e-03 0.000000e+00
 -9.429146e-03 -7.235983e-03 0.000000e+00
 -1.427712e-02 -7.467907e-03 0.000000e+00
 -6.421907e-03 -4.420359e-03 0.000000e+00
 -8.839653e-03 -2.175389e-03 0.000000e+00
 2.607735e-03 2.733833e-02 0.000000e+00
 5.616517e-03 2.711647e-02 0.000000e+00
 4.803609e-03 2.655751e-02 0.000000e+00
 7.304420e-03 4.343693e-03 0.000000e+00
 -2.759982e-03 6.080798e-03 0.000000e+00
 -2.430932e-02 2.685210e-03 0.000000e+00
 -2.436863e-02 4.179554e-03 0.000000e+00
 -2.607978e-02 2.597317e-03 0.000000e+00
 1.988245e-03 6.947309e-03 0.000000e+00
 -1.373634e-02 9.292626e-03 0.000000e+00
 -3.040295e-03 8.596208e-03 0.000000e+00
 8.521761e-03 1.853227e-02 0.000000e+00
 8.423214e-03 2.152108e-02 0.000000e+00
 7.805251e-03 2.352040e-02 0.000000e+00
 1.757311e-03 -1.647907e-02 0.000000e+00
 9.311567e-04 -3.446084e-02 0.000000e+00
 -2.705644e-02 -1.628543e-03 0.000000e+00
 -2.896506e-02 -2.809355e-03 0.000000e+00
 -3.044016e-02 -2.420534e-03 0.000000e+00
 1.767098e-03 -8.212060e-03 0.000000e+00
 1.349498e-03 -1.022540e-02 0.000000e+00
 0.000000e+00 0.000000e+00 0.000000e+00
 -1.278289e-02 7.961644e-03 0.000000e+00
 -1.275603e-03 1.620886e-03 0.000000e+00
 -3.485522e-03 -1.469816e-03 0.000000e+00
 -3.726125e-04 -1.724479e-03 0.000000e+00
 -2.321427e-02 -1.913743e-04 0.000000e+00
 -2.562453e-02 1.529421e-03 0.000000e+00
 -1.892072e-02 1.641501e-03 0.000000e+00
 -1.020106e-02 -3.594585e-03 0.000000e+00
 -4.309032e-03 -1.733272e-03 0.000000e+00
 4.811306e-04 -4.345018e-03 0.000000e+00
 1.343575e-03 3.652514e-04 0.000000e+00
 5.376768e-04 -1.555266e-02 0.000000e+00
 3.308229e-03 1.379471e-02 0.000000e+00
 4.707017e-03 9.281548e-03 0.000000e+00
 4.171704e-03 1.762624e-02 0.000000e+00
 5.684244e-03 2.275189e-02 0.000000e+00
 6.797626e-03 2.542778e-02 0.000000e+00
 6.053264e-03 2.591090e-02 0.000000e+00
 1.958199e-03 5.636309e-03 0.000000e+00
 4.063667e-04 1.755593e-02 0.000000e+00
 -2.803045e-04 1.365784e-02 0.000000e+00
 -7.186765e-03 2.357518e-02 0.000000e+00
 -9.072262e-03 1.985870e-02 0.000000e+00
 -2.748589e-03 2.465746e-02 0.000000e+00
 -9.062341e-03 -1.380403e-02 0.000000e+00
 2.053778e-02 -5.063710e-02 0.000000e+00
 2.826849e-02 1.706972e-03 0.000000e+00
 0.000000e+00 0.000000e+00 0.000000e+00
 4.760821e-03 5.079045e-03 0.000000e+00
 2.562371e-02 4.081580e-03 0.000000e+00
 -5.262788e-03 5.205148e-03 0.000000e+00
 -1.413102e-02 6.603469e-03 0.000000e+00
 -1.669686e-02 7.535492e-03 0.000000e+00
 2.076223e-03 1.730426e-02 0.000000e+00
 -5.956147e-04 2.212749e-02 0.000000e+00
 4.819490e-03 2.082105e-02 0.000000e+00
 4.845427e-03 1.848227e-02 0.000000e+00
 3.823034e-03 1.212969e-02 0.000000e+00
 3.997674e-03 2.130555e-02 0.000000e+00
 5.000687e-03 7.290901e-03 0.000000e+00
 -1.591186e-03 2.186324e-02 0.000000e+00
 -1.895401e-02 9.159683e-03 0.000000e+00
 -2.053595e-02 8.802777e-03 0.000000e+00
 -2.012841e-02 8.290032e-03 0.000000e+00
 5.079691e-03 1.951372e-03 0.000000e+00
 -1.793382e-03 3.597613e-03 0.000000e+00
 1.635706e-02 1.264877e-03 0.000000e+00
 -2.204202e-02 6.584354e-03 0.000000e+00
 -2.111860e-02 7.627266e-03 0.000000e+00
 -2.053588e-02 7.328866e-03 0.000000e+00
 -1.688088e-02 -7.419322e-03 0.000000e+00
 -1.450450e-02 -6.542932e-03 0.000000e+00
 -1.008787e-02 -8.333124e-03 0.000000e+00
 -2.476704e-02 -3.285236e-03 0.000000e+00
 -2.417111e-02 -5.562930e-03 0.000000e+00
 1.077187e-03 -7.702771e-03 0.000000e+00
 -1.349685e-03 -9.809249e-03 0.000000e+00
 9.114140e-03 -7.889305e-03 0.000000e+00
 2.428211e-02 -4.368061e-03 0.000000e+00
 2.703907e-02 -1.911616e-03 0.000000e+00
 -6.806026e-03 3.840661e-03 0.000000e+00
 -3.112253e-03 4.685810e-03 0.000000e+00
 -4.229408e-03 8.903936e-03 0.000000e+00
 -1.009545e-02 5.677904e-04 0.000000e+00
 1.238569e-03 -4.871871e-04 0.000000e+00
 3.873028e-03 2.150250e-02 0.000000e+00
 5.440476e-03 2.055417e-02 0.000000e+00
 6.789078e-03 -3.132540e-03 0.000000e+00
 6.903769e-03 1.175418e-02 0.000000e+00
 5.792872e-03 2.462185e-03 0.000000e+00
 4.185620e-03 8.641194e-03 0.000000e+00
 4.384260e-03 1.585306e-02 0.000000e+00
 3.555743e-03 6.215811e-04 0.000000e+00
 2.526278e-03 2.178323e-02 0.000000e+00
 9.506404e-03 -4.066747e-03 0.000000e+00
 3.790531e-03 -4.086422e-03 0.000000e+00
 2.539655e-03 -5.341091e-03 0.000000e+00
 1.451586e-03 -6.812219e-03 0.000000e+00
 1.610588e-03 -4.410809e-03 0.000000e+00
 2.667466e-03 2.927882e-03 0.000000e+00
 2.593141e-03 -4.368218e-03 0.000000e+00
 4.360651e-03 2.170557e-02 0.000000e+00
 2.918910e-03 1.553986e-02 0.000000e+00
 3.333622e-03 2.099971e-02 0.000000e+00
 -7.299726e-03 3.045566e-03 0.000000e+00
 7.311751e-03 7.049098e-04 0.000000e+00
 3.074882e-02 -2.982885e-03 0.000000e+00
 1.786570e-02 -4.316901e-03 0.000000e+00
 2.232579e-02 -2.413002e-03 0.000000e+00
 8.137842e-03 -1.685344e-02 0.000000e+00
 4.197947e-03 -1.438263e-02 0.000000e+00
 -2.868210e-02 -4.535661e-03 0.000000e+00
 3.531654e-02 1.214643e-04 0.000000e+00
 0.000000e+00 0.000000e+00 0.000000e+00
 1.577518e-02 -8.503375e-04 0.000000e+00
 -5.676160e-03 1.123667e-02 0.000000e+00
 -2.940556e-03 1.619055e-02 0.000000e+00
 -6.317188e-03 1.482044e-02 0.000000e+00
 1.504875e-03 -6.279255e-03 0.000000e+00
 1.187800e-03 5.780232e-04 0.000000e+00
 5.506388e-04 9.943411e-04 0.000000e+00
 4.334704e-03 -6.452286e-03 0.000000e+00
 2.679200e-03 -1.393272e-02 0.000000e+00
 2.948086e-03 -2.479756e-02 0.000000e+00
 -2.629796e-02 2.066183e-03 0.000000e+00
 -2.574571e-02 7.377966e-03 0.000000e+00
 -2.958057e-02 2.700620e-03 0.000000e+00
 5.090292e-03 2.385354e-02 0.000000e+00
 4.055265e-03 2.034350e-02 0.000000e+00
 9.823564e-04 -1.789891e-02 0.000000e+00
 8.444752e-04 -1.914448e-02 0.000000e+00
 0.000000e+00 0.000000e+00 0.000000e+00
 3.046822e-03 2.490755e-02 0.000000e+00
 7.200889e-04 2.670887e-02 0.000000e+00
 -2.037002e-02 1.250402e-02 0.000000e+00
 -1.414553e-02 1.325645e-02 0.000000e+00
 3.403785e-04 9.706497e-03 0.000000e+00
 -1.380522e-03 9.193528e-03 0.000000e+00
 5.455797e-04 6.125288e-03 0.000000e+00
 -7.756192e-03 5.167576e-03 0.000000e+00
 -1.716920e-02 7.004414e-03 0.000000e+00
 -6.234747e-03 -8.379580e-04 0.000000e+00
 -1.170105e-04 5.068276e-04 0.000000e+00
 -1.814416e-02 2.126685e-03 0.000000e+00
 -2.292998e-02 -4.229485e-03 0.000000e+00
 -1.434203e-02 -4.893522e-03 0.000000e+00
 -2.722113e-02 4.883877e-05 0.000000e+00
 -1.478957e-02 -2.715701e-03 0.000000e+00
 -3.749968e-03 -1.023529e-02 0.000000e+00
 -3.117639e-02 -3.561825e-04 0.000000e+00
 -2.521077e-02 -1.005039e-03 0.000000e+00
 0.000000e+00 0.000000e+00 0.000000e+00
 8.076702e-03 2.038579e-02 0.000000e+00
 9.391209e-03 1.054480e-02 0.000000e+00
 9.464824e-03 3.316304e-03 0.000000e+00
 9.806466e-03 -3.428423e-03 0.000000e+00
 6.194157e-03 2.249536e-02 0.000000e+00
 6.839787e-03 1.816130e-02 0.000000e+00
 -7.498316e-03 4.290442e-03 0.000000e+00
 -1.703198e-02 4.754103e-03 0.000000e+00
 -1.290304e-03 2.704884e-03 0.000000e+00
 -2.345752e-02 5.476222e-03 0.000000e+00
 -2.118109e-02 3.681577e-03 0.000000e+00
 -2.249357e-02 5.277347e-03 0.000000e+00
 1.280661e-02 2.768088e-03 0.000000e+00
 7.918748e-03 3.727915e-03 0.000000e+00
 2.410471e-02 -4.077138e-04 0.000000e+00
 5.549788e-03 1.286003e-03 0.000000e+00
 -1.569947e-02 6.672949e-03 0.000000e+00
 -3.301165e-03 -5.101879e-03 0.000000e+00
 6.086492e-03 -3.215113e-02 0.000000e+00
 -4.820696e-03 -1.201470e-03 0.000000e+00
 4.630902e-03 -3.217026e-02 0.000000e+00
 6.606879e-03 -3.057672e-02 0.000000e+00
 6.887108e-03 -1.471453e-02 0.000000e+00
 1.991967e-03 -4.284222e-02 0.000000e+00
 9.544425e-03 -2.074709e-02 0.000000e+00
 8.273306e-03 -3.010810e-02 0.000000e+00
 1.568048e-02 -6.850596e-03 0.000000e+00
 2.568849e-02 -4.679675e-03 0.000000e+00
 1.630238e-02 -6.947843e-03 0.000000e+00
 1.805259e-03 -1.994507e-02 0.000000e+00
 2.907565e-03 -6.639556e-03 0.000000e+00
 2.122889e-03 -1.781532e-02 0.000000e+00
 2.598061e-03 -9.302576e-03 0.000000e+00
 3.409571e-03 -1.022496e-03 0.000000e+00
 6.747426e-03 2.404883e-02 0.000000e+00
 5.526961e-03 2.340987e-02 0.000000e+00
 4.627758e-03 1.452661e-02 0.000000e+00
 -1.080972e-02 5.175066e-03 0.000000e+00
 -3.981806e-03 4.318428e-03 0.000000e+00
 1.527935e-02 2.279204e-03 0.000000e+00
 2.037265e-02 1.571916e-03 0.000000e+00
 3.511691e-03 3.452940e-03 0.000000e+00
 2.484886e-03 3.289103e-04 0.000000e+00
 2.279686e-03 1.261850e-02 0.000000e+00
 1.078769e-03 -1.874933e-02 0.000000e+00
 1.998589e-03 2.289403e-03 0.000000e+00
 -1.064299e-02 1.728183e-02 0.000000e+00
 -1.605028e-02 1.077185e-02 0.000000e+00
 -1.912173e-02 1.891740e-03 0.000000e+00
 -2.144092e-02 1.228618e-02 0.000000e+00
 1.116868e-02 -3.849673e-03 0.000000e+00
 -1.898449e-02 -2.086836e-03 0.000000e+00
 -2.275234e-03 4.754855e-03 0.000000e+00
 -1.492142e-02 2.922558e-03 0.000000e+00
 -2.080076e-02 -5.860336e-03 0.000000e+00
 -2.105470e-02 -2.680004e-03 0.000000e+00