<?xml version="1.0"?>
<VTKFile type="UnstructuredGrid"  version="0.1"  >
<UnstructuredGrid>
<Piece  NumberOfPoints="505" NumberOfCells="928">
<Points>
<DataArray  type="Float32"  NumberOfComponents="3"  format="ascii">
0 0 0
1 0 0
0 1 0
1 0.5 0
0.5 0.5 0
0.5 1 0
0.1 0 0
0.2 0 0
0.3 0 0
0.4 0 0
0.5 0 0
0.6 0 0
0.7 0 0
0.8 0 0
0.9 0 0
0 0.9 0
0 0.8 0
0 0.7 0
0 0.6 0
0 0.5 0
0 0.4 0
0 0.3 0
0 0.2 0
0 0.1 0
0.9 0.5 0
0.8 0.5 0
0.7 0.5 0
0.6 0.5 0
0.5 0.6 0
0.5 0.7 0
0.5 0.8 0
0.5 0.9 0
0.1 1 0
0.2 1 0
0.3 1 0
0.4 1 0
1 0.1 0
1 0.2 0
1 0.3 0
1 0.4 0
0.300178 0.296564 0
0.247566 0.664879 0
0.639694 0.259804 0
0.06564 0.06472 0
0.04439 0.954144 0
0.932418 0.064715 0
0.951013 0.456419 0
0.437622 0.939659 0
0.195334 0.464441 0
0.483382 0.329596 0
0.834786 0.236295 0
0.307228 0.81139 0
0.178229 0.173372 0
0.366998 0.134199 0
0.547485 0.14214 0
0.124832 0.74927 0
0.160163 0.896658 0
0.342556 0.535243 0
0.147651 0.342018 0
0.729803 0.127878 0
0.725981 0.357775 0
0.121369 0.600441 0
0.372954 0.70814 0
0.908503 0.151525 0
0.89851 0.333305 0
0.556275 0.400898 0
0.259184 0.092178 0
0.46329 0.194362 0
0.423773 0.869712 0
0.22823 0.818162 0
0.081292 0.144905 0
0.082979 0.831935 0
0.549999 0.065419 0
0.371537 0.407588 0
0.642628 0.097865 0
0.459835 0.086595 0
0.108565 0.418567 0
0.273082 0.902112 0
0.256598 0.556659 0
0.11951 0.509541 0
0.234147 0.370527 0
0.097453 0.253261 0
0.638438 0.342389 0
0.554656 0.224779 0
0.373432 0.237603 0
0.339663 0.62579 0
0.27079 0.747786 0
0.733958 0.266592 0
0.928527 0.244458 0
0.853116 0.071497 0
0.818426 0.404817 0
0.280194 0.200604 0
0.417859 0.565185 0
0.147241 0.079056 0
0.389149 0.789957 0
0.42808 0.654642 0
0.343469 0.059202 0
0.086765 0.684153 0
0.162043 0.675011 0
0.809252 0.14201 0
0.364337 0.928607 0
0.077532 0.916553 0
0.159064 0.807906 0
0.302124 0.454032 0
0.205909 0.272176 0
0.449664 0.407415 0
0.66041 0.423241 0
0.562201 0.303789 0
0.802658 0.320211 0
0.614551 0.182931 0
0.390944 0.331035 0
0.687136 0.18846 0
0.070577 0.342498 0
0.741087 0.437361 0
0.176989 0.547528 0
0.710251 0.07409 0
0.192845 0.608574 0
0.171114 0.398277 0
0.058959 0.753084 0
0.904 0.425508 0
0.438039 0.730373 0
0.057223 0.475897 0
0.058502 0.552106 0
0.330493 0.750997 0
0.312295 0.699131 0
0.684882 0.307111 0
0.053312 0.627311 0
0.198798 0.743695 0
0.392326 0.069953 0
0.351519 0.860283 0
0.397134 0.477694 0
0.319385 0.371198 0
0.767351 0.069505 0
0.441954 0.271171 0
0.759504 0.192785 0
0.855661 0.457701 0
0.500847 0.264652 0
0.916209 0.0323575 0
0.966209 0.0323575 0
0.95 0 0
0.578137 0.450449 0
0.528137 0.450449 0
0.55 0.5 0
0.03282 0.08236 0
0.03282 0.03236 0
0 0.05 0
0.502969 0.404157 0
0.474832 0.453708 0
0.468811 0.91983 0
0.468811 0.96983 0
0.5 0.95 0
0.072195 0.977072 0
0.022195 0.977072 0
0.05 1 0
0.022195 0.927072 0
0 0.95 0
0.060961 0.935348 0
0.038766 0.908276 0
0.106441 0.071888 0
0.123621 0.039528 0
0.08282 0.03236 0
0.0414895 0.815967 0
0.0414895 0.865968 0
0 0.85 0
0.173621 0.039528 0
0.15 0 0
0.05 0 0
0.301327 0.07569 0
0.321735 0.029601 0
0.279592 0.046089 0
0.070969 0.792509 0
0.0294795 0.776542 0
0.0294795 0.726542 0
0 0.75 0
0.114267 0.111981 0
0.073466 0.104813 0
0.229592 0.046089 0
0.25 0 0
0.371735 0.029601 0
0.35 0 0
0.479917 0.0432975 0
0.429918 0.0432975 0
0.45 0 0
0.461562 0.140479 0
0.413416 0.110397 0
0.415144 0.16428 0
0.574999 0.0327095 0
0.525 0.0327095 0
0.55 0 0
0.596313 0.081642 0
0.621314 0.0489325 0
0.927507 0.440964 0
0.902 0.462754 0
0.925507 0.47821 0
0.0700385 0.655732 0
0.026656 0.663655 0
0.0433825 0.692076 0
0.026656 0.613655 0
0 0.65 0
0.276766 0.370862 0
0.309781 0.333881 0
0.267162 0.333545 0
0.458929 0.582593 0
0.458929 0.532593 0
0.5 0.55 0
0.422969 0.609913 0
0.46404 0.627321 0
0.43306 0.692508 0
0.46902 0.715186 0
0.46404 0.677321 0
0.46902 0.765186 0
0.5 0.75 0
0.180082 0.948329 0
0.130082 0.948329 0
0.15 1 0
0.87983 0.441605 0
0.87783 0.478851 0
0.975507 0.42821 0
0.975507 0.47821 0
1 0.45 0
0.676439 0.0859775 0
0.705125 0.037045 0
0.671314 0.0489325 0
0.779756 0.421089 0
0.770544 0.46868 0
0.809213 0.452408 0
0.738801 0.0717975 0
0.733675 0.0347525 0
0.95 0.5 0
0.720544 0.46868 0
0.75 0.5 0
0.029251 0.526053 0
0.029251 0.576053 0
0 0.55 0
0.089006 0.530824 0
0.0899355 0.576273 0
0.12044 0.554991 0
0.461886 0.884856 0
0.461886 0.834856 0
0.5 0.85 0
0.089571 0.380533 0
0.0352885 0.371249 0
0.0542825 0.409284 0
0.918515 0.197991 0
0.964263 0.222229 0
0.954252 0.175762 0
0.630205 0.46162 0
0.680205 0.46162 0
0.65 0.5 0
0.0352885 0.321249 0
0 0.35 0
0.0487265 0.226631 0
0.0487265 0.276631 0
0 0.25 0
0.286541 0.951056 0
0.236541 0.951056 0
0.25 1 0
0.382169 0.964303 0
0.332168 0.964303 0
0.35 1 0
0.966209 0.0823575 0
1 0.05 0
0.876558 0.0357485 0
0.826558 0.0357485 0
0.85 0 0
0.710547 0.227526 0
0.663415 0.224132 0
0.686826 0.263198 0
0.964263 0.272229 0
1 0.25 0
0.40098 0.934133 0
0.418811 0.96983 0
0.45 1 0
0.326813 0.219104 0
0.290186 0.248584 0
0.336805 0.267084 0
0.243052 0.23639 0
0.253043 0.28437 0
0.224721 0.582616 0
0.220205 0.636726 0
0.252082 0.610769 0
0.92046 0.10812 0
0.954252 0.125762 0
0.66166 0.32475 0
0.662288 0.283458 0
0.639066 0.301096 0
0.949255 0.366653 0
0.949255 0.316653 0
1 0.35 0
0.291542 0.723459 0
0.27993 0.682005 0
0.259178 0.706333 0
0.394055 0.89916 0
0.430698 0.904686 0
0.531524 0.28422 0
0.492115 0.297124 0
0.522791 0.316692 0
0.040646 0.122453 0
0.040646 0.172453 0
0 0.15 0
1 0.15 0
0.151681 0.262718 0
0.192069 0.222774 0
0.137841 0.213317 0
0.558428 0.264284 0
0.600947 0.281797 0
0.597175 0.242291 0
0.508973 0.20957 0
0.551071 0.183459 0
0.505387 0.168251 0
0.118847 0.906605 0
0.088766 0.958276 0
0.3123 0.881198 0
0.329373 0.835836 0
0.290155 0.856751 0
0.18042 0.709353 0
0.223182 0.704287 0
0.204805 0.669945 0
0.114037 0.464054 0
0.157422 0.486991 0
0.15195 0.441504 0
0.279361 0.505346 0
0.248729 0.459236 0
0.225966 0.51055 0
0.423399 0.442555 0
0.448567 0.488847 0
0.892767 0.068106 0
0.65 0 0
0.901255 0.379406 0
0.952 0.412754 0
0.858877 0.146767 0
0.822019 0.189153 0
0.871644 0.19391 0
0.14825 0.528535 0
0.186162 0.505985 0
0.178931 0.775801 0
0.161815 0.746482 0
0.141948 0.778588 0
0.29813 0.591225 0
0.34111 0.580516 0
0.299577 0.545951 0
0.913519 0.288882 0
0.881657 0.240376 0
0.866648 0.2848 0
0.664882 0.143162 0
0.708469 0.158169 0
0.686215 0.112871 0
0.768308 0.293401 0
0.818722 0.278253 0
0.784372 0.251443 0
0.407693 0.254387 0
0.452622 0.232766 0
0.418361 0.215983 0
0.559238 0.352343 0
0.519829 0.365247 0
0.269689 0.146391 0
0.323596 0.167402 0
0.313091 0.113188 0
0.367897 0.0645775 0
0.396163 0.0349765 0
0.220028 0.321352 0
0.17678 0.307097 0
0.190899 0.356272 0
0.584604 0.203855 0
0.581018 0.162535 0
0.250656 0.860137 0
0.267729 0.814776 0
0.359821 0.770477 0
0.31886 0.781193 0
0.348189 0.800674 0
0.124404 0.679582 0
0.141706 0.637726 0
0.104067 0.642297 0
0.216622 0.899385 0
0.203213 0.085617 0
0.162735 0.126214 0
0.218707 0.132775 0
0.0893725 0.199083 0
0.129761 0.159139 0
0.121022 0.819921 0
0.103905 0.790602 0
0.193647 0.813034 0
0.159614 0.852282 0
0.194196 0.85741 0
0.650843 0.185696 0
0.628589 0.140398 0
0.504917 0.076007 0
0.50366 0.114367 0
0.548742 0.103779 0
0.378761 0.595487 0
0.380208 0.550214 0
0.466523 0.368506 0
0.783675 0.0347525 0
0.75 0 0
0.595056 0.120002 0
0.20263 0.384402 0
0.183224 0.431359 0
0.214741 0.417484 0
0.084015 0.29788 0
0.109114 0.342258 0
0.122552 0.29764 0
0.370334 0.82512 0
0.387646 0.864998 0
0.406461 0.829835 0
0.355164 0.351116 0
0.345461 0.389393 0
0.38124 0.369312 0
0.177444 0.641792 0
0.157107 0.604507 0
0.0286115 0.437949 0
0.0286115 0.487949 0
0 0.45 0
0.184917 0.578051 0
0.216794 0.552094 0
0.310754 0.412615 0
0.268135 0.41228 0
0.13984 0.408422 0
0.159382 0.370147 0
0.128108 0.380293 0
0.784378 0.167398 0
0.797145 0.21454 0
0.649424 0.382815 0
0.693196 0.390508 0
0.682209 0.350082 0
0.471401 0.267911 0
0.482069 0.229507 0
0.600319 0.323089 0
0.597356 0.371644 0
0.370215 0.185901 0
0.420304 0.369225 0
0.410601 0.407502 0
0.5 0.65 0
0.293615 0.645334 0
0.325979 0.66246 0
0.342624 0.703635 0
0.356309 0.666965 0
0.24951 0.782974 0
0.289009 0.779588 0
0.810542 0.362514 0
0.76432 0.338993 0
0.772204 0.381296 0
0.70942 0.286852 0
0.705431 0.332443 0
0.729969 0.312184 0
0.831184 0.106754 0
0.88081 0.111511 0
0.700748 0.430301 0
0.733534 0.397568 0
0.850584 0.326758 0
0.229212 0.186988 0
0.407496 0.52144 0
0.369845 0.506468 0
0.413594 0.760165 0
0.405497 0.719256 0
0.381051 0.749049 0
0.444574 0.794979 0
0.383872 0.640216 0
0.400517 0.681391 0
0.355233 0.0967005 0
0.42608 0.078274 0
0.379662 0.102076 0
0.055907 0.589708 0
0.0873405 0.613876 0
0.072862 0.718619 0
0.0918955 0.751177 0
0.105798 0.716711 0
0.234794 0.74574 0
0.213514 0.780928 0
0.143437 0.712141 0
0.72332 0.190623 0
0.744653 0.160332 0
0.788301 0.105758 0
0.748577 0.0986915 0
0.769527 0.134944 0
0.357928 0.894445 0
0.318709 0.915359 0
0.0802555 0.874244 0
0.121571 0.864297 0
0.32234 0.494638 0
0.349629 0.465863 0
0.384335 0.442641 0
0.336831 0.43081 0
0.608343 0.412069 0
0.527752 0.244716 0
0.858468 0.369061 0
0.627123 0.221367 0
0.382188 0.284319 0
0.345561 0.3138 0
0.437163 0.330315 0
0.746731 0.229689 0
0.149179 0.573985 0
0.720027 0.100984 0
0.810234 0.070501 0
0.861213 0.415162 0
0.827831 0.478851 0
0.85 0.5 0
0.082894 0.447232 0
0.0883665 0.492719 0
0.0578625 0.514002 0
0.300642 0.749391 0
0.351723 0.729569 0
0.321394 0.725064 0
0.416449 0.301103 0
0.462668 0.300384 0
0.837044 0.431259 0
</DataArray>
</Points>
<Cells>
<DataArray  type="UInt32"  Name="connectivity"  format="ascii">
1 138 139 
14 137 139 
45 137 138 
137 138 139 
4 141 142 
27 140 142 
65 140 141 
140 141 142 
0 144 145 
23 143 145 
43 143 144 
143 144 145 
4 141 147 
65 141 146 
105 146 147 
141 146 147 
5 149 150 
31 148 150 
47 148 149 
148 149 150 
2 152 153 
32 151 153 
44 151 152 
151 152 153 
2 152 155 
15 154 155 
44 152 154 
152 154 155 
15 154 157 
44 154 156 
101 156 157 
154 156 157 
6 159 160 
43 158 160 
93 158 159 
158 159 160 
15 162 163 
16 161 163 
71 161 162 
161 162 163 
6 159 165 
7 164 165 
93 159 164 
159 164 165 
[...]
<PointData  Vectors="u"> 
<DataArray  type="Float32"  Name="u"  NumberOfComponents="3" format="ascii">
 0.000000e+00 0.000000e+00 0.000000e+00
 0.000000e+00 0.000000e+00 0.000000e+00
 0.000000e+00 0.000000e+00 0.000000e+00
 0.000000e+00 0.000000e+00 0.000000e+00
 0.000000e+00 0.000000e+00 0.000000e+00
 0.000000e+00 0.000000e+00 0.000000e+00
 0.000000e+00 0.000000e+00 0.000000e+00
 0.000000e+00 0.000000e+00 0.000000e+00
 0.000000e+00 0.000000e+00 0.000000e+00
 0.000000e+00 0.000000e+00 0.000000e+00
 0.000000e+00 0.000000e+00 0.000000e+00
 0.000000e+00 0.000000e+00 0.000000e+00
 0.000000e+00 0.000000e+00 0.000000e+00
 0.000000e+00 0.000000e+00 0.000000e+00
 0.000000e+00 0.000000e+00 0.000000e+00
 0.000000e+00 0.000000e+00 0.000000e+00
 0.000000e+00 0.000000e+00 0.000000e+00
 0.000000e+00 0.000000e+00 0.000000e+00
 0.000000e+00 0.000000e+00 0.000000e+00
 0.000000e+00 0.000000e+00 0.000000e+00
 0.000000e+00 0.000000e+00 0.000000e+00
 0.000000e+00 0.000000e+00 0.000000e+00
 0.000000e+00 0.000000e+00 0.000000e+00
 0.000000e+00 0.000000e+00 0.000000e+00
 0.000000e+00 0.000000e+00 0.000000e+00
 0.000000e+00 0.000000e+00 0.000000e+00
 0.000000e+00 0.000000e+00 0.000000e+00
 0.000000e+00 0.000000e+00 0.000000e+00
 0.000000e+00 0.000000e+00 0.000000e+00
 0.000000e+00 0.000000e+00 0.000000e+00
 0.000000e+00 0.000000e+00 0.000000e+00
 0.000000e+00 0.000000e+00 0.000000e+00
 3.434652e-04 -1.409122e-01 0.000000e+00
 6.807279e-04 -1.516971e-01 0.000000e+00
 6.937403e-04 -1.537884e-01 0.000000e+00
 3.823112e-04 -1.457403e-01 0.000000e+00
 1.416018e-01 -3.523745e-04 0.000000e+00
 1.519639e-01 -7.295505e-04 0.000000e+00
 1.535529e-01 -7.505429e-04 0.000000e+00
 1.450271e-01 -3.729124e-04 0.000000e+00
 7.498922e-02 -7.446509e-02 0.000000e+00
 1.556877e-02 -1.500084e-01 0.000000e+00
 1.511483e-01 -1.849909e-02 0.000000e+00
 7.706875e-03 -7.648085e-03 0.000000e+00
 1.473852e-04 -1.023650e-01 0.000000e+00
 1.232685e-01 -3.305225e-04 0.000000e+00
 1.048476e-01 -1.646301e-04 0.000000e+00
 3.638245e-04 -1.258297e-01 0.000000e+00
 3.307929e-02 -1.174017e-01 0.000000e+00
 1.467382e-01 -6.519705e-02 0.000000e+00
 1.523881e-01 -3.900582e-03 0.000000e+00
 4.969821e-03 -1.548443e-01 0.000000e+00
 3.869472e-02 -3.780364e-02 0.000000e+00
 8.831699e-02 -2.481388e-02 0.000000e+00
 1.269460e-01 -1.624045e-02 0.000000e+00
 4.533344e-03 -1.418774e-01 0.000000e+00
 1.707251e-03 -1.494245e-01 0.000000e+00
 4.804491e-02 -1.603507e-01 0.000000e+00
 2.847315e-02 -8.285548e-02 0.000000e+00
 1.420841e-01 -5.038017e-03 0.000000e+00
 1.575799e-01 -7.507363e-03 0.000000e+00
 1.038660e-02 -1.299975e-01 0.000000e+00
 9.152136e-03 -1.583237e-01 0.000000e+00
 1.493369e-01 -1.401224e-03 0.000000e+00
 1.537830e-01 -1.793398e-03 0.000000e+00
 1.750219e-01 -3.809258e-02 0.000000e+00
 5.593946e-02 -1.593214e-02 0.000000e+00
 1.170980e-01 -3.329242e-02 0.000000e+00
 1.067673e-03 -1.365516e-01 0.000000e+00
 4.697045e-03 -1.517623e-01 0.000000e+00
 1.304694e-02 -2.649751e-02 0.000000e+00
 1.402675e-03 -1.321473e-01 0.000000e+00
 1.042737e-01 -5.228496e-03 0.000000e+00
 1.000128e-01 -1.221896e-01 0.000000e+00
 1.289587e-01 -6.019907e-03 0.000000e+00
 1.001346e-01 -1.097470e-02 0.000000e+00
 1.643345e-02 -9.674401e-02 0.000000e+00
 2.105030e-03 -1.534704e-01 0.000000e+00
 3.165552e-02 -1.429445e-01 0.000000e+00
 1.483747e-02 -1.166850e-01 0.000000e+00
 5.124387e-02 -9.602999e-02 0.000000e+00
 1.687431e-02 -5.504735e-02 0.000000e+00
 1.623644e-01 -1.846661e-02 0.000000e+00
 1.384736e-01 -2.769158e-02 0.000000e+00
 9.674850e-02 -5.279306e-02 0.000000e+00
 2.227535e-02 -1.616883e-01 0.000000e+00
 8.718097e-03 -1.534690e-01 0.000000e+00
 1.534370e-01 -9.072187e-03 0.000000e+00
 1.528541e-01 -1.549698e-03 0.000000e+00
 1.269883e-01 -8.628688e-04 0.000000e+00
 1.459659e-01 -1.992656e-03 0.000000e+00
 6.770201e-02 -4.505759e-02 0.000000e+00
 3.117561e-02 -1.719387e-01 0.000000e+00
 2.681590e-02 -1.280237e-02 0.000000e+00
 3.765754e-03 -1.518644e-01 0.000000e+00
 8.242137e-03 -1.479339e-01 0.000000e+00
 6.567182e-02 -7.643114e-03 0.000000e+00
 4.191954e-03 -1.276462e-01 0.000000e+00
 9.878494e-03 -1.424081e-01 0.000000e+00
 1.468250e-01 -3.188481e-03 0.000000e+00
 1.089641e-03 -1.524103e-01 0.000000e+00
 5.652857e-04 -1.311354e-01 0.000000e+00
 3.866931e-03 -1.478722e-01 0.000000e+00
 6.206205e-02 -1.300892e-01 0.000000e+00
 4.616162e-02 -6.590383e-02 0.000000e+00
 1.493188e-01 -1.143141e-01 0.000000e+00
 1.479319e-01 -6.494018e-03 0.000000e+00
 1.546259e-01 -3.586559e-02 0.000000e+00
 1.551515e-01 -4.687803e-03 0.000000e+00
 1.402517e-01 -1.580401e-02 0.000000e+00
 1.101220e-01 -8.464935e-02 0.000000e+00
 1.461048e-01 -1.035854e-02 0.000000e+00
 9.759868e-03 -6.955644e-02 0.000000e+00
 1.303347e-01 -2.095589e-03 0.000000e+00
 2.150948e-02 -1.306618e-01 0.000000e+00
 1.240159e-01 -2.643791e-03 0.000000e+00
 1.755226e-02 -1.401101e-01 0.000000e+00
 3.217425e-02 -9.923684e-02 0.000000e+00
 1.541341e-03 -1.139072e-01 0.000000e+00
 1.345206e-01 -5.975085e-04 0.000000e+00
 3.052163e-03 -1.320912e-01 0.000000e+00
 5.499165e-03 -8.703361e-02 0.000000e+00
 4.420049e-03 -9.833294e-02 0.000000e+00
 7.797269e-03 -1.566333e-01 0.000000e+00
 1.257594e-02 -1.568107e-01 0.000000e+00
 1.570483e-01 -1.320702e-02 0.000000e+00
 2.725042e-03 -1.014028e-01 0.000000e+00
 7.678147e-03 -1.487320e-01 0.000000e+00
 8.083004e-02 -9.188503e-03 0.000000e+00
 2.627064e-03 -1.540629e-01 0.000000e+00
 8.995352e-02 -1.645283e-01 0.000000e+00
 7.991196e-02 -1.019669e-01 0.000000e+00
 1.233415e-01 -1.631367e-03 0.000000e+00
 1.213465e-01 -5.618688e-02 0.000000e+00
 1.492322e-01 -6.323595e-03 0.000000e+00
 1.040529e-01 -3.665355e-04 0.000000e+00
 1.358405e-01 -4.389327e-02 0.000000e+00
 8.407005e-02 -1.308456e-04 0.000000e+00
 8.444681e-02 -7.813406e-05 0.000000e+00
 0.000000e+00 0.000000e+00 0.000000e+00
 1.400878e-01 -1.313748e-02 0.000000e+00
 1.642014e-01 -5.934573e-02 0.000000e+00
 0.000000e+00 0.000000e+00 0.000000e+00
 3.033905e-03 -7.188803e-03 0.000000e+00
 1.755319e-03 -1.736812e-03 0.000000e+00
 0.000000e+00 0.000000e+00 0.000000e+00
 1.751579e-01 -7.941683e-02 0.000000e+00
 1.560687e-01 -1.312972e-01 0.000000e+00
 1.628524e-04 -8.528209e-02 0.000000e+00
 1.145477e-04 -8.513482e-02 0.000000e+00
 0.000000e+00 0.000000e+00 0.000000e+00
 2.362163e-04 -1.280211e-01 0.000000e+00
 5.179779e-05 -6.480513e-02 0.000000e+00
 1.295036e-04 -1.093300e-01 0.000000e+00
 9.475169e-05 -6.440029e-02 0.000000e+00
 0.000000e+00 0.000000e+00 0.000000e+00
 3.129504e-04 -1.196633e-01 0.000000e+00
 2.511955e-04 -9.481567e-02 0.000000e+00
 1.643863e-02 -1.061227e-02 0.000000e+00
 1.512651e-02 -4.388029e-03 0.000000e+00
 7.231776e-03 -3.024257e-03 0.000000e+00
 5.424526e-04 -9.550768e-02 0.000000e+00
 3.802683e-04 -9.641519e-02 0.000000e+00
 0.000000e+00 0.000000e+00 0.000000e+00
 2.389783e-02 -4.588960e-03 0.000000e+00
 0.000000e+00 0.000000e+00 0.000000e+00
 0.000000e+00 0.000000e+00 0.000000e+00
 6.296840e-02 -1.150778e-02 0.000000e+00
 4.134937e-02 -2.817351e-03 0.000000e+00
 4.573722e-02 -5.485538e-03 0.000000e+00
 1.532786e-03 -1.243283e-01 0.000000e+00
 4.515033e-04 -7.667782e-02 0.000000e+00
 6.589147e-04 -7.519232e-02 0.000000e+00
 0.000000e+00 0.000000e+00 0.000000e+00
 2.074063e-02 -2.045962e-02 0.000000e+00
 1.074530e-02 -1.628056e-02 0.000000e+00
 3.654755e-02 -5.692005e-03 0.000000e+00
 0.000000e+00 0.000000e+00 0.000000e+00
 4.748561e-02 -2.541817e-03 0.000000e+00
 0.000000e+00 0.000000e+00 0.000000e+00
 7.626923e-02 -3.586197e-03 0.000000e+00
 6.936744e-02 -4.038582e-03 0.000000e+00
 0.000000e+00 0.000000e+00 0.000000e+00
 1.110851e-01 -2.172164e-02 0.000000e+00
 9.667208e-02 -1.760654e-02 0.000000e+00
 1.029089e-01 -2.993427e-02 0.000000e+00
 7.376912e-02 -1.609545e-03 0.000000e+00
 6.945207e-02 -2.042355e-03 0.000000e+00
 0.000000e+00 0.000000e+00 0.000000e+00
 1.182971e-01 -5.900035e-03 0.000000e+00
 9.658474e-02 -2.330357e-03 0.000000e+00
 1.223771e-01 -3.189304e-04 0.000000e+00
 9.625248e-02 -1.908052e-04 0.000000e+00
 6.595488e-02 -7.114303e-05 0.000000e+00
 3.565584e-03 -1.166377e-01 0.000000e+00
 8.066866e-04 -6.787165e-02 0.000000e+00
 1.428010e-03 -9.513490e-02 0.000000e+00
 1.023322e-03 -6.531466e-02 0.000000e+00
 0.000000e+00 0.000000e+00 0.000000e+00
 6.478229e-02 -9.911409e-02 0.000000e+00
 7.797338e-02 -8.768582e-02 0.000000e+00
 6.327216e-02 -8.597268e-02 0.000000e+00
 1.134205e-02 -1.312568e-01 0.000000e+00
 4.423922e-02 -1.556737e-01 0.000000e+00
 0.000000e+00 0.000000e+00 0.000000e+00
 1.564827e-02 -1.593888e-01 0.000000e+00
 4.298498e-03 -1.094000e-01 0.000000e+00
 4.921774e-03 -1.394883e-01 0.000000e+00
 1.296773e-03 -9.039030e-02 0.000000e+00
 2.322448e-03 -1.024013e-01 0.000000e+00
 8.545623e-04 -8.835137e-02 0.000000e+00
 0.000000e+00 0.000000e+00 0.000000e+00
 9.845188e-04 -1.508640e-01 0.000000e+00
 7.212520e-04 -1.470335e-01 0.000000e+00
 5.376255e-04 -1.492458e-01 0.000000e+00
 1.223415e-01 -5.044640e-04 0.000000e+00
 6.480450e-02 -9.135053e-05 0.000000e+00
 1.318559e-01 -2.657384e-04 0.000000e+00
 6.600330e-02 -5.951753e-05 0.000000e+00
 1.126966e-01 -1.578779e-04 0.000000e+00
 1.275242e-01 -4.036913e-03 0.000000e+00
 8.890462e-02 -1.011832e-03 0.000000e+00
 9.956752e-02 -1.801715e-03 0.000000e+00
 1.399698e-01 -2.127123e-03 0.000000e+00
 8.724216e-02 -5.227722e-04 0.000000e+00
 1.120898e-01 -7.171217e-04 0.000000e+00
 1.237876e-01 -2.101709e-03 0.000000e+00
 8.452513e-02 -7.366761e-04 0.000000e+00
 0.000000e+00 0.000000e+00 0.000000e+00
 8.889329e-02 -7.967011e-04 0.000000e+00
 0.000000e+00 0.000000e+00 0.000000e+00
 1.677441e-03 -6.311455e-02 0.000000e+00
 1.374290e-03 -6.690785e-02 0.000000e+00
 0.000000e+00 0.000000e+00 0.000000e+00
 9.031746e-03 -1.121798e-01 0.000000e+00
 7.649760e-03 -1.186058e-01 0.000000e+00
 1.259839e-02 -1.239689e-01 0.000000e+00
 3.051823e-04 -9.687781e-02 0.000000e+00
 5.561507e-04 -9.818025e-02 0.000000e+00
 0.000000e+00 0.000000e+00 0.000000e+00
 1.320257e-02 -8.386786e-02 0.000000e+00
 3.406125e-03 -5.233947e-02 0.000000e+00
 6.022233e-03 -7.422481e-02 0.000000e+00
 1.516696e-01 -1.588965e-03 0.000000e+00
 1.524428e-01 -9.898930e-04 0.000000e+00
 1.510505e-01 -9.488235e-04 0.000000e+00
 1.093332e-01 -2.751317e-03 0.000000e+00
 1.032977e-01 -1.610856e-03 0.000000e+00
 0.000000e+00 0.000000e+00 0.000000e+00
 3.574889e-03 -4.509077e-02 0.000000e+00
 0.000000e+00 0.000000e+00 0.000000e+00
 6.003575e-03 -3.652942e-02 0.000000e+00
 5.830449e-03 -4.582524e-02 0.000000e+00
 0.000000e+00 0.000000e+00 0.000000e+00
 1.087531e-03 -1.536582e-01 0.000000e+00
 1.108929e-03 -1.526090e-01 0.000000e+00
 7.347830e-04 -1.529779e-01 0.000000e+00
 5.841455e-04 -1.499376e-01 0.000000e+00
 8.117947e-04 -1.537470e-01 0.000000e+00
 5.695939e-04 -1.530958e-01 0.000000e+00
 1.344632e-01 -3.356751e-04 0.000000e+00
 1.099958e-01 -1.381385e-04 0.000000e+00
 8.906615e-02 -2.358811e-04 0.000000e+00
 8.849149e-02 -3.638703e-04 0.000000e+00
 0.000000e+00 0.000000e+00 0.000000e+00
 1.502023e-01 -1.024909e-02 0.000000e+00
 1.481640e-01 -1.411010e-02 0.000000e+00
 1.527336e-01 -1.308352e-02 0.000000e+00
 1.533287e-01 -1.012134e-03 0.000000e+00
 1.529827e-01 -7.911188e-04 0.000000e+00
 7.105503e-04 -1.457166e-01 0.000000e+00
 3.574937e-04 -1.381675e-01 0.000000e+00
 1.750705e-04 -1.134506e-01 0.000000e+00
 8.192959e-02 -4.937849e-02 0.000000e+00
 7.144838e-02 -5.930677e-02 0.000000e+00
 8.666300e-02 -6.406025e-02 0.000000e+00
 5.719041e-02 -5.580441e-02 0.000000e+00
 6.006660e-02 -7.029182e-02 0.000000e+00
 2.371894e-02 -1.412551e-01 0.000000e+00
 1.705526e-02 -1.454093e-01 0.000000e+00
 2.254353e-02 -1.477478e-01 0.000000e+00
 1.432159e-01 -8.143095e-04 0.000000e+00
 1.469807e-01 -6.709682e-04 0.000000e+00
 1.593532e-01 -1.560994e-02 0.000000e+00
 1.547001e-01 -1.601766e-02 0.000000e+00
 1.569072e-01 -1.953780e-02 0.000000e+00
 1.515298e-01 -8.033808e-04 0.000000e+00
 1.536477e-01 -1.079759e-03 0.000000e+00
 1.526238e-01 -6.076388e-04 0.000000e+00
 1.059168e-02 -1.549174e-01 0.000000e+00
 1.450045e-02 -1.539189e-01 0.000000e+00
 1.177856e-02 -1.522218e-01 0.000000e+00
 1.198323e-03 -1.480483e-01 0.000000e+00
 6.320286e-04 -1.315706e-01 0.000000e+00
 1.458637e-01 -4.109701e-02 0.000000e+00
 1.407423e-01 -5.338037e-02 0.000000e+00
 1.528739e-01 -4.901904e-02 0.000000e+00
 4.456659e-03 -1.503644e-02 0.000000e+00
 4.664161e-03 -2.371326e-02 0.000000e+00
 0.000000e+00 0.000000e+00 0.000000e+00
 1.497355e-01 -5.720597e-04 0.000000e+00
 3.120581e-02 -6.178165e-02 0.000000e+00
 4.255753e-02 -5.168479e-02 0.000000e+00
 2.772352e-02 -4.787033e-02 0.000000e+00
 1.456904e-01 -3.226409e-02 0.000000e+00
 1.527505e-01 -2.571638e-02 0.000000e+00
 1.460056e-01 -2.346085e-02 0.000000e+00
 1.287417e-01 -3.130488e-02 0.000000e+00
 1.324914e-01 -2.219641e-02 0.000000e+00
 1.230018e-01 -2.391219e-02 0.000000e+00
 1.091309e-03 -1.448139e-01 0.000000e+00
 4.125021e-04 -1.368505e-01 0.000000e+00
 2.508395e-03 -1.543001e-01 0.000000e+00
 3.710092e-03 -1.548695e-01 0.000000e+00
 3.401622e-03 -1.540394e-01 0.000000e+00
 8.918845e-03 -1.460507e-01 0.000000e+00
 1.101800e-02 -1.491698e-01 0.000000e+00
 1.289757e-02 -1.460454e-01 0.000000e+00
 1.606104e-02 -1.073211e-01 0.000000e+00
 2.308826e-02 -1.178041e-01 0.000000e+00
 2.497337e-02 -1.078926e-01 0.000000e+00
 4.532312e-02 -1.385768e-01 0.000000e+00
 4.624034e-02 -1.226538e-01 0.000000e+00
 3.417561e-02 -1.306246e-01 0.000000e+00
 1.245378e-01 -1.470133e-01 0.000000e+00
 1.044741e-01 -1.722094e-01 0.000000e+00
 1.254163e-01 -5.524085e-04 0.000000e+00
 0.000000e+00 0.000000e+00 0.000000e+00
 1.503279e-01 -1.219931e-03 0.000000e+00
 1.406971e-01 -4.439850e-04 0.000000e+00
 1.483141e-01 -2.200684e-03 0.000000e+00
 1.503406e-01 -3.808033e-03 0.000000e+00
 1.511740e-01 -2.526123e-03 0.000000e+00
 1.853149e-02 -1.243054e-01 0.000000e+00
 2.697713e-02 -1.249276e-01 0.000000e+00
 5.533884e-03 -1.484087e-01 0.000000e+00
 6.212499e-03 -1.461305e-01 0.000000e+00
 4.272569e-03 -1.454027e-01 0.000000e+00
 2.875483e-02 -1.539506e-01 0.000000e+00
 3.317818e-02 -1.626167e-01 0.000000e+00
 3.952707e-02 -1.503577e-01 0.000000e+00
 1.536570e-01 -1.785760e-03 0.000000e+00
 1.526819e-01 -2.542626e-03 0.000000e+00
 1.537834e-01 -2.906427e-03 0.000000e+00
 1.401850e-01 -8.818705e-03 0.000000e+00
 1.445416e-01 -7.483328e-03 0.000000e+00
 1.367577e-01 -5.701497e-03 0.000000e+00
 1.548341e-01 -6.739389e-03 0.000000e+00
 1.538617e-01 -4.509596e-03 0.000000e+00
 1.527776e-01 -6.037627e-03 0.000000e+00
 1.089239e-01 -5.527816e-02 0.000000e+00
 1.189897e-01 -4.407880e-02 0.000000e+00
 1.078879e-01 -4.294988e-02 0.000000e+00
 1.668122e-01 -4.004809e-02 0.000000e+00
 1.668644e-01 -5.919194e-02 0.000000e+00
 6.334954e-02 -3.011911e-02 0.000000e+00
 7.885797e-02 -3.475127e-02 0.000000e+00
 7.242689e-02 -2.081048e-02 0.000000e+00
 7.335869e-02 -8.511463e-03 0.000000e+00
 5.792543e-02 -3.185214e-03 0.000000e+00
 4.932764e-02 -8.060518e-02 0.000000e+00
 3.711863e-02 -7.506847e-02 0.000000e+00
 3.960791e-02 -8.912746e-02 0.000000e+00
 1.395306e-01 -2.109719e-02 0.000000e+00
 1.342476e-01 -1.642476e-02 0.000000e+00
 3.317803e-03 -1.528221e-01 0.000000e+00
 5.033252e-03 -1.534174e-01 0.000000e+00
 5.777367e-03 -1.559150e-01 0.000000e+00
 6.278668e-03 -1.556465e-01 0.000000e+00
 4.699544e-03 -1.553768e-01 0.000000e+00
 7.021606e-03 -1.378052e-01 0.000000e+00
 1.042070e-02 -1.371090e-01 0.000000e+00
 6.851588e-03 -1.303252e-01 0.000000e+00
 2.066602e-03 -1.519081e-01 0.000000e+00
 4.102460e-02 -1.448963e-02 0.000000e+00
 3.377558e-02 -2.485006e-02 0.000000e+00
 4.885523e-02 -2.679999e-02 0.000000e+00
 1.506691e-02 -4.044950e-02 0.000000e+00
 2.538242e-02 -3.319672e-02 0.000000e+00
 2.602691e-03 -1.437219e-01 0.000000e+00
 2.684695e-03 -1.389258e-01 0.000000e+00
 4.417487e-03 -1.500796e-01 0.000000e+00
 2.682928e-03 -1.487785e-01 0.000000e+00
 3.018374e-03 -1.507859e-01 0.000000e+00
 1.435665e-01 -1.291519e-02 0.000000e+00
 1.367279e-01 -1.071392e-02 0.000000e+00
 1.037665e-01 -7.792156e-03 0.000000e+00
 1.153663e-01 -1.441871e-02 0.000000e+00
 1.201242e-01 -1.044344e-02 0.000000e+00
 2.682124e-02 -1.686440e-01 0.000000e+00
 4.388050e-02 -1.718299e-01 0.000000e+00
 1.510005e-01 -8.609599e-02 0.000000e+00
 8.613150e-02 -4.922174e-04 0.000000e+00
 0.000000e+00 0.000000e+00 0.000000e+00
 1.297912e-01 -1.038356e-02 0.000000e+00
 4.109486e-02 -9.797493e-02 0.000000e+00
 3.296252e-02 -1.082124e-01 0.000000e+00
 4.239701e-02 -1.079864e-01 0.000000e+00
 1.313939e-02 -6.369718e-02 0.000000e+00
 1.860796e-02 -7.898357e-02 0.000000e+00
 2.300226e-02 -6.945811e-02 0.000000e+00
 3.241663e-03 -1.534627e-01 0.000000e+00
 1.889730e-03 -1.500395e-01 0.000000e+00
 2.095053e-03 -1.455668e-01 0.000000e+00
 9.517497e-02 -9.480723e-02 0.000000e+00
 8.942666e-02 -1.113250e-01 0.000000e+00
 1.075433e-01 -1.030689e-01 0.000000e+00
 1.331430e-02 -1.414641e-01 0.000000e+00
 1.417059e-02 -1.357494e-01 0.000000e+00
 2.250228e-03 -5.378020e-02 0.000000e+00
 1.872286e-03 -5.856137e-02 0.000000e+00
 0.000000e+00 0.000000e+00 0.000000e+00
 1.968227e-02 -1.357946e-01 0.000000e+00
 2.683186e-02 -1.360726e-01 0.000000e+00
 7.229629e-02 -1.168165e-01 0.000000e+00
 5.772912e-02 -1.117973e-01 0.000000e+00
 2.421580e-02 -9.890948e-02 0.000000e+00
 3.062850e-02 -9.126315e-02 0.000000e+00
 2.221220e-02 -9.074998e-02 0.000000e+00
 1.483133e-01 -4.615907e-03 0.000000e+00
 1.511398e-01 -5.124283e-03 0.000000e+00
 1.623429e-01 -1.307444e-02 0.000000e+00
 1.566567e-01 -7.631405e-03 0.000000e+00
 1.601668e-01 -1.175411e-02 0.000000e+00
 1.292525e-01 -5.023102e-02 0.000000e+00
 1.259645e-01 -3.916132e-02 0.000000e+00
 1.606445e-01 -2.711282e-02 0.000000e+00
 1.686440e-01 -2.559506e-02 0.000000e+00
 9.278009e-02 -3.814807e-02 0.000000e+00
 1.277045e-01 -9.920524e-02 0.000000e+00
 1.224590e-01 -1.228769e-01 0.000000e+00
 0.000000e+00 0.000000e+00 0.000000e+00
 1.939854e-02 -1.549494e-01 0.000000e+00
 1.652734e-02 -1.588177e-01 0.000000e+00
 1.123407e-02 -1.586743e-01 0.000000e+00
 1.456966e-02 -1.612092e-01 0.000000e+00
 6.514202e-03 -1.524604e-01 0.000000e+00
 6.708076e-03 -1.544289e-01 0.000000e+00
 1.540754e-01 -3.441947e-03 0.000000e+00
 1.562310e-01 -5.999081e-03 0.000000e+00
 1.533265e-01 -4.072873e-03 0.000000e+00
 1.550225e-01 -1.103308e-02 0.000000e+00
 1.582337e-01 -1.038100e-02 0.000000e+00
 1.563982e-01 -8.905428e-03 0.000000e+00
 1.415011e-01 -1.868504e-03 0.000000e+00
 1.435488e-01 -1.278097e-03 0.000000e+00
 1.387908e-01 -3.630731e-03 0.000000e+00
 1.518962e-01 -4.730769e-03 0.000000e+00
 1.544263e-01 -2.984144e-03 0.000000e+00
 5.300536e-02 -4.158810e-02 0.000000e+00
 6.190724e-02 -1.783957e-01 0.000000e+00
 6.511632e-02 -1.643471e-01 0.000000e+00
 3.622625e-03 -1.456478e-01 0.000000e+00
 5.991481e-03 -1.516496e-01 0.000000e+00
 5.938456e-03 -1.551246e-01 0.000000e+00
 1.446420e-03 -1.224622e-01 0.000000e+00
 1.623848e-02 -1.635990e-01 0.000000e+00
 9.282829e-03 -1.565435e-01 0.000000e+00
 8.009535e-02 -1.573948e-02 0.000000e+00
 9.052206e-02 -1.014430e-02 0.000000e+00
 8.734322e-02 -1.635902e-02 0.000000e+00
 3.531276e-03 -1.004047e-01 0.000000e+00
 6.119054e-03 -1.218331e-01 0.000000e+00
 2.619352e-03 -1.224930e-01 0.000000e+00
 2.979126e-03 -1.334389e-01 0.000000e+00
 4.551524e-03 -1.361732e-01 0.000000e+00
 8.468947e-03 -1.511247e-01 0.000000e+00
 6.137655e-03 -1.505317e-01 0.000000e+00
 6.827179e-03 -1.426631e-01 0.000000e+00
 1.479242e-01 -8.144452e-03 0.000000e+00
 1.464523e-01 -5.908174e-03 0.000000e+00
 1.399963e-01 -2.577617e-03 0.000000e+00
 1.365180e-01 -3.134169e-03 0.000000e+00
 1.447704e-01 -4.059888e-03 0.000000e+00
 1.750949e-03 -1.532422e-01 0.000000e+00
 1.626707e-03 -1.540929e-01 0.000000e+00
 9.112529e-04 -1.318178e-01 0.000000e+00
 1.763212e-03 -1.446885e-01 0.000000e+00
 5.775296e-02 -1.468078e-01 0.000000e+00
 7.562493e-02 -1.454400e-01 0.000000e+00
 9.899533e-02 -1.426972e-01 0.000000e+00
 7.994568e-02 -1.283664e-01 0.000000e+00
 1.627557e-01 -1.599982e-02 0.000000e+00
 1.373841e-01 -3.514769e-02 0.000000e+00
 1.523862e-01 -2.084606e-03 0.000000e+00
 1.455971e-01 -1.782756e-02 0.000000e+00