<?xml version="1.0"?>
<VTKFile type="UnstructuredGrid"  version="0.1"  >
<UnstructuredGrid>
<Piece  NumberOfPoints="505" NumberOfCells="928">
<Points>
<DataArray  type="Float32"  NumberOfComponents="3"  format="ascii">
0 0 0
1 0 0
0 1 0
1 0.5 0
0.5 0.5 0
0.5 1 0
0.1 0 0
0.2 0 0
0.3 0 0
0.4 0 0
0.5 0 0
0.6 0 0
0.7 0 0
0.8 0 0
0.9 0 0
0 0.9 0
0 0.8 0
0 0.7 0
0 0.6 0
0 0.5 0
0 0.4 0
0 0.3 0
0 0.2 0
0 0.1 0
0.9 0.5 0
0.8 0.5 0
0.7 0.5 0
0.6 0.5 0
0.5 0.6 0
0.5 0.7 0
0.5 0.8 0
0.5 0.9 0
0.1 1 0
0.2 1 0
0.3 1 0
0.4 1 0
1 0.1 0
1 0.2 0
1 0.3 0
1 0.4 0
0.300178 0.296564 0
0.247566 0.664879 0
0.639694 0.259804 0
0.06564 0.06472 0
0.04439 0.954144 0
0.932418 0.064715 0
0.951013 0.456419 0
0.437622 0.939659 0
0.195334 0.464441 0
0.483382 0.329596 0
0.834786 0.236295 0
0.307228 0.81139 0
0.178229 0.173372 0
0.366998 0.134199 0
0.547485 0.14214 0
0.124832 0.74927 0
0.160163 0.896658 0
0.342556 0.535243 0
0.147651 0.342018 0
0.729803 0.127878 0
0.725981 0.357775 0
0.121369 0.600441 0
0.372954 0.70814 0
0.908503 0.151525 0
0.89851 0.333305 0
0.556275 0.400898 0
0.259184 0.092178 0
0.46329 0.194362 0
0.423773 0.869712 0
0.22823 0.818162 0
0.081292 0.144905 0
0.082979 0.831935 0
0.549999 0.065419 0
0.371537 0.407588 0
0.642628 0.097865 0
0.459835 0.086595 0
0.108565 0.418567 0
0.273082 0.902112 0
0.256598 0.556659 0
0.11951 0.509541 0
0.234147 0.370527 0
0.097453 0.253261 0
0.638438 0.342389 0
0.554656 0.224779 0
0.373432 0.237603 0
0.339663 0.62579 0
0.27079 0.747786 0
0.733958 0.266592 0
0.928527 0.244458 0
0.853116 0.071497 0
0.818426 0.404817 0
0.280194 0.200604 0
0.417859 0.565185 0
0.147241 0.079056 0
0.389149 0.789957 0
0.42808 0.654642 0
0.343469 0.059202 0
0.086765 0.684153 0
0.162043 0.675011 0
0.809252 0.14201 0
0.364337 0.928607 0
0.077532 0.916553 0
0.159064 0.807906 0
0.302124 0.454032 0
0.205909 0.272176 0
0.449664 0.407415 0
0.66041 0.423241 0
0.562201 0.303789 0
0.802658 0.320211 0
0.614551 0.182931 0
0.390944 0.331035 0
0.687136 0.18846 0
0.070577 0.342498 0
0.741087 0.437361 0
0.176989 0.547528 0
0.710251 0.07409 0
0.192845 0.608574 0
0.171114 0.398277 0
0.058959 0.753084 0
0.904 0.425508 0
0.438039 0.730373 0
0.057223 0.475897 0
0.058502 0.552106 0
0.330493 0.750997 0
0.312295 0.699131 0
0.684882 0.307111 0
0.053312 0.627311 0
0.198798 0.743695 0
0.392326 0.069953 0
0.351519 0.860283 0
0.397134 0.477694 0
0.319385 0.371198 0
0.767351 0.069505 0
0.441954 0.271171 0
0.759504 0.192785 0
0.855661 0.457701 0
0.500847 0.264652 0
0.916209 0.0323575 0
0.966209 0.0323575 0
0.95 0 0
0.578137 0.450449 0
0.528137 0.450449 0
0.55 0.5 0
0.03282 0.08236 0
0.03282 0.03236 0
0 0.05 0
0.502969 0.404157 0
0.474832 0.453708 0
0.468811 0.91983 0
0.468811 0.96983 0
0.5 0.95 0
0.072195 0.977072 0
0.022195 0.977072 0
0.05 1 0
0.022195 0.927072 0
0 0.95 0
0.060961 0.935348 0
0.038766 0.908276 0
0.106441 0.071888 0
0.123621 0.039528 0
0.08282 0.03236 0
0.0414895 0.815967 0
0.0414895 0.865968 0
0 0.85 0
0.173621 0.039528 0
0.15 0 0
0.05 0 0
0.301327 0.07569 0
0.321735 0.029601 0
0.279592 0.046089 0
0.070969 0.792509 0
0.0294795 0.776542 0
0.0294795 0.726542 0
0 0.75 0
0.114267 0.111981 0
0.073466 0.104813 0
0.229592 0.046089 0
0.25 0 0
0.371735 0.029601 0
0.35 0 0
0.479917 0.0432975 0
0.429918 0.0432975 0
0.45 0 0
0.461562 0.140479 0
0.413416 0.110397 0
0.415144 0.16428 0
0.574999 0.0327095 0
0.525 0.0327095 0
0.55 0 0
0.596313 0.081642 0
0.621314 0.0489325 0
0.927507 0.440964 0
0.902 0.462754 0
0.925507 0.47821 0
0.0700385 0.655732 0
0.026656 0.663655 0
0.0433825 0.692076 0
0.026656 0.613655 0
0 0.65 0
0.276766 0.370862 0
0.309781 0.333881 0
0.267162 0.333545 0
0.458929 0.582593 0
0.458929 0.532593 0
0.5 0.55 0
0.422969 0.609913 0
0.46404 0.627321 0
0.43306 0.692508 0
0.46902 0.715186 0
0.46404 0.677321 0
0.46902 0.765186 0
0.5 0.75 0
0.180082 0.948329 0
0.130082 0.948329 0
0.15 1 0
0.87983 0.441605 0
0.87783 0.478851 0
0.975507 0.42821 0
0.975507 0.47821 0
1 0.45 0
0.676439 0.0859775 0
0.705125 0.037045 0
0.671314 0.0489325 0
0.779756 0.421089 0
0.770544 0.46868 0
0.809213 0.452408 0
0.738801 0.0717975 0
0.733675 0.0347525 0
0.95 0.5 0
0.720544 0.46868 0
0.75 0.5 0
0.029251 0.526053 0
0.029251 0.576053 0
0 0.55 0
0.089006 0.530824 0
0.0899355 0.576273 0
0.12044 0.554991 0
0.461886 0.884856 0
0.461886 0.834856 0
0.5 0.85 0
0.089571 0.380533 0
0.0352885 0.371249 0
0.0542825 0.409284 0
0.918515 0.197991 0
0.964263 0.222229 0
0.954252 0.175762 0
0.630205 0.46162 0
0.680205 0.46162 0
0.65 0.5 0
0.0352885 0.321249 0
0 0.35 0
0.0487265 0.226631 0
0.0487265 0.276631 0
0 0.25 0
0.286541 0.951056 0
0.236541 0.951056 0
0.25 1 0
0.382169 0.964303 0
0.332168 0.964303 0
0.35 1 0
0.966209 0.0823575 0
1 0.05 0
0.876558 0.0357485 0
0.826558 0.0357485 0
0.85 0 0
0.710547 0.227526 0
0.663415 0.224132 0
0.686826 0.263198 0
0.964263 0.272229 0
1 0.25 0
0.40098 0.934133 0
0.418811 0.96983 0
0.45 1 0
0.326813 0.219104 0
0.290186 0.248584 0
0.336805 0.267084 0
0.243052 0.23639 0
0.253043 0.28437 0
0.224721 0.582616 0
0.220205 0.636726 0
0.252082 0.610769 0
0.92046 0.10812 0
0.954252 0.125762 0
0.66166 0.32475 0
0.662288 0.283458 0
0.639066 0.301096 0
0.949255 0.366653 0
0.949255 0.316653 0
1 0.35 0
0.291542 0.723459 0
0.27993 0.682005 0
0.259178 0.706333 0
0.394055 0.89916 0
0.430698 0.904686 0
0.531524 0.28422 0
0.492115 0.297124 0
0.522791 0.316692 0
0.040646 0.122453 0
0.040646 0.172453 0
0 0.15 0
1 0.15 0
0.151681 0.262718 0
0.192069 0.222774 0
0.137841 0.213317 0
0.558428 0.264284 0
0.600947 0.281797 0
0.597175 0.242291 0
0.508973 0.20957 0
0.551071 0.183459 0
0.505387 0.168251 0
0.118847 0.906605 0
0.088766 0.958276 0
0.3123 0.881198 0
0.329373 0.835836 0
0.290155 0.856751 0
0.18042 0.709353 0
0.223182 0.704287 0
0.204805 0.669945 0
0.114037 0.464054 0
0.157422 0.486991 0
0.15195 0.441504 0
0.279361 0.505346 0
0.248729 0.459236 0
0.225966 0.51055 0
0.423399 0.442555 0
0.448567 0.488847 0
0.892767 0.068106 0
0.65 0 0
0.901255 0.379406 0
0.952 0.412754 0
0.858877 0.146767 0
0.822019 0.189153 0
0.871644 0.19391 0
0.14825 0.528535 0
0.186162 0.505985 0
0.178931 0.775801 0
0.161815 0.746482 0
0.141948 0.778588 0
0.29813 0.591225 0
0.34111 0.580516 0
0.299577 0.545951 0
0.913519 0.288882 0
0.881657 0.240376 0
0.866648 0.2848 0
0.664882 0.143162 0
0.708469 0.158169 0
0.686215 0.112871 0
0.768308 0.293401 0
0.818722 0.278253 0
0.784372 0.251443 0
0.407693 0.254387 0
0.452622 0.232766 0
0.418361 0.215983 0
0.559238 0.352343 0
0.519829 0.365247 0
0.269689 0.146391 0
0.323596 0.167402 0
0.313091 0.113188 0
0.367897 0.0645775 0
0.396163 0.0349765 0
0.220028 0.321352 0
0.17678 0.307097 0
0.190899 0.356272 0
0.584604 0.203855 0
0.581018 0.162535 0
0.250656 0.860137 0
0.267729 0.814776 0
0.359821 0.770477 0
0.31886 0.781193 0
0.348189 0.800674 0
0.124404 0.679582 0
0.141706 0.637726 0
0.104067 0.642297 0
0.216622 0.899385 0
0.203213 0.085617 0
0.162735 0.126214 0
0.218707 0.132775 0
0.0893725 0.199083 0
0.129761 0.159139 0
0.121022 0.819921 0
0.103905 0.790602 0
0.193647 0.813034 0
0.159614 0.852282 0
0.194196 0.85741 0
0.650843 0.185696 0
0.628589 0.140398 0
0.504917 0.076007 0
0.50366 0.114367 0
0.548742 0.103779 0
0.378761 0.595487 0
0.380208 0.550214 0
0.466523 0.368506 0
0.783675 0.0347525 0
0.75 0 0
0.595056 0.120002 0
0.20263 0.384402 0
0.183224 0.431359 0
0.214741 0.417484 0
0.084015 0.29788 0
0.109114 0.342258 0
0.122552 0.29764 0
0.370334 0.82512 0
0.387646 0.864998 0
0.406461 0.829835 0
0.355164 0.351116 0
0.345461 0.389393 0
0.38124 0.369312 0
0.177444 0.641792 0
0.157107 0.604507 0
0.0286115 0.437949 0
0.0286115 0.487949 0
0 0.45 0
0.184917 0.578051 0
0.216794 0.552094 0
0.310754 0.412615 0
0.268135 0.41228 0
0.13984 0.408422 0
0.159382 0.370147 0
0.128108 0.380293 0
0.784378 0.167398 0
0.797145 0.21454 0
0.649424 0.382815 0
0.693196 0.390508 0
0.682209 0.350082 0
0.471401 0.267911 0
0.482069 0.229507 0
0.600319 0.323089 0
0.597356 0.371644 0
0.370215 0.185901 0
0.420304 0.369225 0
0.410601 0.407502 0
0.5 0.65 0
0.293615 0.645334 0
0.325979 0.66246 0
0.342624 0.703635 0
0.356309 0.666965 0
0.24951 0.782974 0
0.289009 0.779588 0
0.810542 0.362514 0
0.76432 0.338993 0
0.772204 0.381296 0
0.70942 0.286852 0
0.705431 0.332443 0
0.729969 0.312184 0
0.831184 0.106754 0
0.88081 0.111511 0
0.700748 0.430301 0
0.733534 0.397568 0
0.850584 0.326758 0
0.229212 0.186988 0
0.407496 0.52144 0
0.369845 0.506468 0
0.413594 0.760165 0
0.405497 0.719256 0
0.381051 0.749049 0
0.444574 0.794979 0
0.383872 0.640216 0
0.400517 0.681391 0
0.355233 0.0967005 0
0.42608 0.078274 0
0.379662 0.102076 0
0.055907 0.589708 0
0.0873405 0.613876 0
0.072862 0.718619 0
0.0918955 0.751177 0
0.105798 0.716711 0
0.234794 0.74574 0
0.213514 0.780928 0
0.143437 0.712141 0
0.72332 0.190623 0
0.744653 0.160332 0
0.788301 0.105758 0
0.748577 0.0986915 0
0.769527 0.134944 0
0.357928 0.894445 0
0.318709 0.915359 0
0.0802555 0.874244 0
0.121571 0.864297 0
0.32234 0.494638 0
0.349629 0.465863 0
0.384335 0.442641 0
0.336831 0.43081 0
0.608343 0.412069 0
0.527752 0.244716 0
0.858468 0.369061 0
0.627123 0.221367 0
0.382188 0.284319 0
0.345561 0.3138 0
0.437163 0.330315 0
0.746731 0.229689 0
0.149179 0.573985 0
0.720027 0.100984 0
0.810234 0.070501 0
0.861213 0.415162 0
0.827831 0.478851 0
0.85 0.5 0
0.082894 0.447232 0
0.0883665 0.492719 0
0.0578625 0.514002 0
0.300642 0.749391 0
0.351723 0.729569 0
0.321394 0.725064 0
0.416449 0.301103 0
0.462668 0.300384 0
0.837044 0.431259 0
</DataArray>
</Points>
<Cells>
<DataArray  type="UInt32"  Name="connectivity"  format="ascii">
1 138 139 
14 137 139 
45 137 138 
137 138 139 
4 141 142 
27 140 142 
65 140 141 
140 141 142 
0 144 145 
23 143 145 
43 143 144 
143 144 145 
4 141 147 
65 141 146 
105 146 147 
141 146 147 
5 149 150 
31 148 150 
47 148 149 
148 149 150 
2 152 153 
32 151 153 
44 151 152 
151 152 153 
2 152 155 
15 154 155 
44 152 154 
152 154 155 
15 154 157 
44 154 156 
101 156 157 
154 156 157 
6 159 160 
43 158 160 
93 158 159 
158 159 160 
15 162 163 
16 161 163 
71 161 162 
161 162 163 
6 159 165 
7 164 165 
93 159 164 
159 164 165 
[...]
<PointData  Vectors="u"> 
<DataArray  type="Float32"  Name="u"  NumberOfComponents="3" format="ascii">
 0.000000e+00 0.000000e+00 0.000000e+00
 0.000000e+00 0.000000e+00 0.000000e+00
 0.000000e+00 0.000000e+00 0.000000e+00
 0.000000e+00 0.000000e+00 0.000000e+00
 0.000000e+00 0.000000e+00 0.000000e+00
 0.000000e+00 0.000000e+00 0.000000e+00
 0.000000e+00 0.000000e+00 0.000000e+00
 0.000000e+00 0.000000e+00 0.000000e+00
 0.000000e+00 0.000000e+00 0.000000e+00
 0.000000e+00 0.000000e+00 0.000000e+00
 0.000000e+00 0.000000e+00 0.000000e+00
 0.000000e+00 0.000000e+00 0.000000e+00
 0.000000e+00 0.000000e+00 0.000000e+00
 0.000000e+00 0.000000e+00 0.000000e+00
 0.000000e+00 0.000000e+00 0.000000e+00
 0.000000e+00 0.000000e+00 0.000000e+00
 0.000000e+00 0.000000e+00 0.000000e+00
 0.000000e+00 0.000000e+00 0.000000e+00
 0.000000e+00 0.000000e+00 0.000000e+00
 0.000000e+00 0.000000e+00 0.000000e+00
 0.000000e+00 0.000000e+00 0.000000e+00
 0.000000e+00 0.000000e+00 0.000000e+00
 0.000000e+00 0.000000e+00 0.000000e+00
 0.000000e+00 0.000000e+00 0.000000e+00
 0.000000e+00 0.000000e+00 0.000000e+00
 0.000000e+00 0.000000e+00 0.000000e+00
 0.000000e+00 0.000000e+00 0.000000e+00
 0.000000e+00 0.000000e+00 0.000000e+00
 0.000000e+00 0.000000e+00 0.000000e+00
 0.000000e+00 0.000000e+00 0.000000e+00
 0.000000e+00 0.000000e+00 0.000000e+00
 0.000000e+00 0.000000e+00 0.000000e+00
 1.808197e-04 7.213138e-02 0.000000e+00
 2.819768e-04 9.958929e-02 0.000000e+00
 3.843468e-04 9.614554e-02 0.000000e+00
 3.198190e-04 6.450570e-02 0.000000e+00
 -7.370442e-02 5.955712e-03 0.000000e+00
 -9.992494e-02 1.197998e-02 0.000000e+00
 -9.590683e-02 1.256901e-02 0.000000e+00
 -6.316691e-02 6.564086e-03 0.000000e+00
 -5.098958e-02 2.959970e-02 0.000000e+00
 -1.516800e-03 1.020921e-01 0.000000e+00
 -9.744893e-02 1.591366e-02 0.000000e+00
 3.637070e-04 -4.108033e-04 0.000000e+00
 1.154827e-04 2.328868e-02 0.000000e+00
 -4.143553e-02 2.700650e-03 0.000000e+00
 -1.637411e-02 1.877828e-03 0.000000e+00
 3.764419e-04 3.338303e-02 0.000000e+00
 -2.073124e-02 7.919902e-02 0.000000e+00
 -1.116110e-01 3.064275e-02 0.000000e+00
 -9.645711e-02 1.215048e-02 0.000000e+00
 3.026542e-03 9.614315e-02 0.000000e+00
 -2.406468e-02 1.804200e-02 0.000000e+00
 -4.131481e-02 2.360757e-03 0.000000e+00
 -5.801957e-02 6.474662e-03 0.000000e+00
 1.227646e-03 8.732760e-02 0.000000e+00
 9.876284e-04 9.689930e-02 0.000000e+00
 -3.065772e-02 1.012820e-01 0.000000e+00
 -1.580971e-02 5.269470e-02 0.000000e+00
 -6.932092e-02 6.648440e-03 0.000000e+00
 -1.044711e-01 9.529190e-03 0.000000e+00
 -1.979039e-03 8.307523e-02 0.000000e+00
 5.116718e-03 7.822648e-02 0.000000e+00
 -9.099278e-02 8.348333e-03 0.000000e+00
 -9.629039e-02 9.886299e-03 0.000000e+00
 -1.062731e-01 1.476296e-02 0.000000e+00
 -2.214827e-02 2.294790e-03 0.000000e+00
 -6.373639e-02 9.576208e-03 0.000000e+00
 1.126691e-03 4.487136e-02 0.000000e+00
 1.994958e-03 9.989545e-02 0.000000e+00
 -5.381723e-03 8.152325e-03 0.000000e+00
 8.247166e-04 6.031604e-02 0.000000e+00
 -2.032107e-02 1.011815e-03 0.000000e+00
 -8.572261e-02 7.092416e-02 0.000000e+00
 -4.662730e-02 3.984318e-03 0.000000e+00
 -2.846812e-02 7.263345e-04 0.000000e+00
 -7.167460e-03 5.880239e-02 0.000000e+00
 1.384538e-03 9.770717e-02 0.000000e+00
 -1.781251e-02 9.954466e-02 0.000000e+00
 -5.617718e-03 7.484239e-02 0.000000e+00
 -3.544857e-02 5.428578e-02 0.000000e+00
 -8.434789e-03 2.929688e-02 0.000000e+00
 -1.143391e-01 1.341646e-02 0.000000e+00
 -8.206905e-02 1.454560e-02 0.000000e+00
 -5.942139e-02 1.456374e-02 0.000000e+00
 -2.505741e-03 9.708424e-02 0.000000e+00
 2.664179e-03 9.975556e-02 0.000000e+00
 -9.945824e-02 1.416028e-02 0.000000e+00
 -9.802134e-02 1.221592e-02 0.000000e+00
 -4.254894e-02 2.280828e-03 0.000000e+00
 -7.257325e-02 4.396034e-03 0.000000e+00
 -4.145204e-02 1.291900e-02 0.000000e+00
 -7.917372e-03 5.003175e-02 0.000000e+00
 -7.451166e-03 3.552693e-03 0.000000e+00
 3.379464e-03 6.931626e-02 0.000000e+00
 4.351162e-03 3.251661e-02 0.000000e+00
 -1.275139e-02 -4.742581e-04 0.000000e+00
 7.079053e-04 6.429392e-02 0.000000e+00
 -4.145013e-04 9.754253e-02 0.000000e+00
 -8.126551e-02 7.370382e-03 0.000000e+00
 9.942348e-04 8.347677e-02 0.000000e+00
 4.242424e-04 5.462893e-02 0.000000e+00
 1.491046e-03 9.718812e-02 0.000000e+00
 -5.149123e-02 8.419807e-02 0.000000e+00
 -2.933562e-02 3.423772e-02 0.000000e+00
 -1.093518e-01 5.330073e-02 0.000000e+00
 -7.035927e-02 3.633327e-03 0.000000e+00
 -1.098869e-01 1.963900e-02 0.000000e+00
 -1.025973e-01 1.099677e-02 0.000000e+00
 -7.606427e-02 1.144735e-02 0.000000e+00
 -8.605543e-02 3.965568e-02 0.000000e+00
 -8.319353e-02 1.196947e-02 0.000000e+00
 -3.369507e-03 3.210129e-02 0.000000e+00
 -4.821501e-02 2.076685e-03 0.000000e+00
 -1.000867e-02 9.193040e-02 0.000000e+00
 -3.544569e-02 2.372216e-03 0.000000e+00
 -5.620152e-03 9.866852e-02 0.000000e+00
 -1.915020e-02 6.461496e-02 0.000000e+00
 7.144296e-04 3.943276e-02 0.000000e+00
 -4.850793e-02 3.356653e-03 0.000000e+00
 2.962233e-03 2.684551e-02 0.000000e+00
 -1.040807e-03 3.449197e-02 0.000000e+00
 -3.312645e-04 3.869075e-02 0.000000e+00
 4.180665e-03 9.347914e-02 0.000000e+00
 2.961245e-03 9.837264e-02 0.000000e+00
 -1.080631e-01 1.420719e-02 0.000000e+00
 3.418338e-04 3.503092e-02 0.000000e+00
 1.398920e-03 1.009118e-01 0.000000e+00
 -1.814138e-02 -3.350884e-04 0.000000e+00
 2.203809e-03 8.758024e-02 0.000000e+00
 -6.396892e-02 8.320218e-02 0.000000e+00
 -6.425292e-02 5.420938e-02 0.000000e+00
 -3.578707e-02 2.058793e-03 0.000000e+00
 -8.183962e-02 2.146092e-02 0.000000e+00
 -8.883128e-02 1.147175e-02 0.000000e+00
 -2.051879e-02 1.003878e-03 0.000000e+00
 -8.974378e-02 1.925830e-02 0.000000e+00
 -1.188752e-02 7.716624e-04 0.000000e+00
 -1.420566e-02 1.341586e-03 0.000000e+00
 0.000000e+00 0.000000e+00 0.000000e+00
 -4.764300e-02 2.707587e-03 0.000000e+00
 -6.000068e-02 1.091734e-02 0.000000e+00
 0.000000e+00 0.000000e+00 0.000000e+00
 2.612290e-04 -1.539166e-03 0.000000e+00
 1.058409e-03 -1.044463e-03 0.000000e+00
 0.000000e+00 0.000000e+00 0.000000e+00
 -1.121466e-01 3.002018e-02 0.000000e+00
 -7.323914e-02 3.673512e-02 0.000000e+00
 1.751428e-04 7.094899e-03 0.000000e+00
 1.096248e-04 7.290073e-03 0.000000e+00
 0.000000e+00 0.000000e+00 0.000000e+00
 1.484801e-04 4.987384e-02 0.000000e+00
 3.341196e-05 5.021438e-03 0.000000e+00
 7.058889e-05 2.853193e-02 0.000000e+00
 9.192664e-05 5.311562e-03 0.000000e+00
 0.000000e+00 0.000000e+00 0.000000e+00
 2.485969e-04 3.931558e-02 0.000000e+00
 2.235723e-04 1.799001e-02 0.000000e+00
 -2.523644e-03 1.904792e-03 0.000000e+00
 3.890429e-04 4.736143e-04 0.000000e+00
 1.636261e-03 -3.330466e-04 0.000000e+00
 3.544446e-04 2.268925e-02 0.000000e+00
 2.975609e-04 2.210596e-02 0.000000e+00
 0.000000e+00 0.000000e+00 0.000000e+00
 -1.691990e-03 5.329629e-04 0.000000e+00
 0.000000e+00 0.000000e+00 0.000000e+00
 0.000000e+00 0.000000e+00 0.000000e+00
 -1.855000e-02 3.728114e-04 0.000000e+00
 -1.350530e-03 -4.786304e-04 0.000000e+00
 -7.187420e-03 -9.293661e-05 0.000000e+00
 8.084213e-04 5.026151e-02 0.000000e+00
 2.871958e-04 1.208878e-02 0.000000e+00
 3.373488e-04 1.278769e-02 0.000000e+00
 0.000000e+00 0.000000e+00 0.000000e+00
 -7.931067e-03 6.792079e-03 0.000000e+00
 -2.542223e-03 2.578431e-03 0.000000e+00
 -5.731797e-03 3.817863e-04 0.000000e+00
 0.000000e+00 0.000000e+00 0.000000e+00
 -1.264331e-03 -4.249074e-04 0.000000e+00
 0.000000e+00 0.000000e+00 0.000000e+00
 -6.556212e-03 -1.033274e-04 0.000000e+00
 -6.260165e-03 -3.153016e-04 0.000000e+00
 0.000000e+00 0.000000e+00 0.000000e+00
 -5.001369e-02 4.111637e-03 0.000000e+00
 -3.654046e-02 1.072876e-03 0.000000e+00
 -5.196886e-02 5.197262e-03 0.000000e+00
 -2.335083e-03 1.688732e-04 0.000000e+00
 -1.672277e-03 -4.794040e-05 0.000000e+00
 0.000000e+00 0.000000e+00 0.000000e+00
 -3.323641e-02 2.394161e-03 0.000000e+00
 -1.357454e-02 8.799459e-04 0.000000e+00
 -3.235271e-02 2.571594e-03 0.000000e+00
 -1.358871e-02 9.808138e-04 0.000000e+00
 -1.879797e-03 4.921465e-04 0.000000e+00
 4.885532e-04 5.043593e-02 0.000000e+00
 3.067729e-04 1.126421e-02 0.000000e+00
 5.146663e-04 2.512214e-02 0.000000e+00
 2.244531e-04 1.172319e-02 0.000000e+00
 0.000000e+00 0.000000e+00 0.000000e+00
 -4.844876e-02 5.288387e-02 0.000000e+00
 -5.752905e-02 4.030048e-02 0.000000e+00
 -4.441941e-02 4.170115e-02 0.000000e+00
 1.477394e-03 1.381502e-03 0.000000e+00
 -8.682756e-03 1.224399e-02 0.000000e+00
 0.000000e+00 0.000000e+00 0.000000e+00
 1.926303e-03 3.844120e-02 0.000000e+00
 2.392999e-03 -1.825614e-03 0.000000e+00
 3.897369e-03 2.936637e-02 0.000000e+00
 1.364422e-03 1.072281e-03 0.000000e+00
 2.071132e-03 1.819857e-03 0.000000e+00
 9.723496e-04 3.251315e-03 0.000000e+00
 0.000000e+00 0.000000e+00 0.000000e+00
 5.709829e-04 9.899874e-02 0.000000e+00
 4.544975e-04 8.841809e-02 0.000000e+00
 2.395805e-04 9.462523e-02 0.000000e+00
 -3.495195e-02 1.987564e-03 0.000000e+00
 -3.001977e-03 3.030312e-04 0.000000e+00
 -4.069908e-02 4.220687e-03 0.000000e+00
 4.512956e-04 1.010571e-03 0.000000e+00
 -1.952626e-02 2.890097e-03 0.000000e+00
 -4.167803e-02 3.229099e-03 0.000000e+00
 -7.318852e-03 4.368778e-04 0.000000e+00
 -1.595920e-02 9.762874e-04 0.000000e+00
 -6.185824e-02 3.188591e-03 0.000000e+00
 -1.402009e-02 4.545517e-04 0.000000e+00
 -2.797023e-02 1.152303e-03 0.000000e+00
 -3.573500e-02 2.204208e-03 0.000000e+00
 -8.083713e-03 4.706243e-04 0.000000e+00
 0.000000e+00 0.000000e+00 0.000000e+00
 -1.580545e-02 4.586782e-04 0.000000e+00
 0.000000e+00 0.000000e+00 0.000000e+00
 1.672386e-05 1.374527e-02 0.000000e+00
 1.591975e-04 1.409854e-02 0.000000e+00
 0.000000e+00 0.000000e+00 0.000000e+00
 -2.174490e-03 6.105497e-02 0.000000e+00
 -1.129621e-03 6.436932e-02 0.000000e+00
 -3.799661e-03 7.965786e-02 0.000000e+00
 3.397172e-04 1.224020e-02 0.000000e+00
 6.249459e-04 1.094006e-02 0.000000e+00
 0.000000e+00 0.000000e+00 0.000000e+00
 -5.272434e-03 4.593833e-02 0.000000e+00
 -4.406679e-04 1.402039e-02 0.000000e+00
 -1.328792e-03 2.827024e-02 0.000000e+00
 -9.726798e-02 1.092278e-02 0.000000e+00
 -9.900982e-02 1.235435e-02 0.000000e+00
 -9.780783e-02 1.042988e-02 0.000000e+00
 -2.738728e-02 5.531302e-04 0.000000e+00
 -2.519260e-02 7.214356e-04 0.000000e+00
 0.000000e+00 0.000000e+00 0.000000e+00
 -6.051739e-04 1.162333e-02 0.000000e+00
 0.000000e+00 0.000000e+00 0.000000e+00
 -2.116629e-03 1.070452e-02 0.000000e+00
 -1.852975e-03 1.542988e-02 0.000000e+00
 0.000000e+00 0.000000e+00 0.000000e+00
 7.374589e-04 9.698992e-02 0.000000e+00
 6.565359e-04 9.887839e-02 0.000000e+00
 3.304569e-04 9.833751e-02 0.000000e+00
 5.238955e-04 7.537846e-02 0.000000e+00
 6.214907e-04 9.243122e-02 0.000000e+00
 4.026262e-04 8.838720e-02 0.000000e+00
 -5.946574e-02 4.461620e-03 0.000000e+00
 -3.101623e-02 2.611803e-03 0.000000e+00
 -1.321398e-02 6.778624e-04 0.000000e+00
 -1.147778e-02 5.649059e-04 0.000000e+00
 0.000000e+00 0.000000e+00 0.000000e+00
 -9.199657e-02 1.392414e-02 0.000000e+00
 -8.920813e-02 1.439564e-02 0.000000e+00
 -9.889440e-02 1.511939e-02 0.000000e+00
 -9.754873e-02 1.273712e-02 0.000000e+00
 -9.833800e-02 1.310599e-02 0.000000e+00
 7.052172e-04 6.358768e-02 0.000000e+00
 3.366528e-04 5.015688e-02 0.000000e+00
 1.573748e-04 2.231982e-02 0.000000e+00
 -4.928520e-02 1.249093e-02 0.000000e+00
 -4.529141e-02 1.964150e-02 0.000000e+00
 -5.652727e-02 2.103238e-02 0.000000e+00
 -3.657446e-02 2.254918e-02 0.000000e+00
 -3.911539e-02 3.064191e-02 0.000000e+00
 -1.074438e-02 9.907263e-02 0.000000e+00
 -3.989241e-03 1.013430e-01 0.000000e+00
 -7.775598e-03 1.020858e-01 0.000000e+00
 -7.421690e-02 5.556943e-03 0.000000e+00
 -8.585378e-02 7.373969e-03 0.000000e+00
 -1.117681e-01 1.391138e-02 0.000000e+00
 -1.037797e-01 1.555449e-02 0.000000e+00
 -1.086810e-01 1.571594e-02 0.000000e+00
 -8.394171e-02 8.602949e-03 0.000000e+00
 -9.549220e-02 1.138353e-02 0.000000e+00
 -8.791979e-02 1.027407e-02 0.000000e+00
 2.935141e-03 9.946426e-02 0.000000e+00
 6.495803e-04 1.014215e-01 0.000000e+00
 1.246285e-03 1.011874e-01 0.000000e+00
 1.185036e-03 6.792349e-02 0.000000e+00
 6.724774e-04 3.927167e-02 0.000000e+00
 -1.009029e-01 2.035120e-02 0.000000e+00
 -1.011111e-01 2.447367e-02 0.000000e+00
 -1.120805e-01 2.391528e-02 0.000000e+00
 -8.787313e-04 1.585054e-04 0.000000e+00
 -1.362086e-03 3.541029e-03 0.000000e+00
 0.000000e+00 0.000000e+00 0.000000e+00
 -9.535848e-02 9.389657e-03 0.000000e+00
 -1.851074e-02 3.683769e-02 0.000000e+00
 -2.736148e-02 2.621515e-02 0.000000e+00
 -1.666726e-02 2.672323e-02 0.000000e+00
 -9.546968e-02 1.782033e-02 0.000000e+00
 -1.034396e-01 1.722067e-02 0.000000e+00
 -9.060188e-02 1.576996e-02 0.000000e+00
 -7.290017e-02 1.244617e-02 0.000000e+00
 -7.037753e-02 1.049071e-02 0.000000e+00
 -6.177061e-02 7.922970e-03 0.000000e+00
 7.077595e-04 8.355265e-02 0.000000e+00
 2.866817e-04 6.383465e-02 0.000000e+00
 1.845717e-03 9.519030e-02 0.000000e+00
 2.714513e-03 9.290040e-02 0.000000e+00
 2.180560e-03 9.709194e-02 0.000000e+00
 5.789076e-04 1.000988e-01 0.000000e+00
 4.990425e-04 1.014764e-01 0.000000e+00
 -1.298750e-03 1.011782e-01 0.000000e+00
 -6.553190e-03 6.713186e-02 0.000000e+00
 -1.208494e-02 8.102966e-02 0.000000e+00
 -1.360391e-02 7.228475e-02 0.000000e+00
 -3.323753e-02 9.489956e-02 0.000000e+00
 -3.435251e-02 7.998584e-02 0.000000e+00
 -2.158588e-02 9.010145e-02 0.000000e+00
 -8.879203e-02 6.915597e-02 0.000000e+00
 -4.469375e-02 4.339400e-02 0.000000e+00
 -4.195363e-02 2.372915e-03 0.000000e+00
 0.000000e+00 0.000000e+00 0.000000e+00
 -8.196893e-02 6.892708e-03 0.000000e+00
 -5.561513e-02 5.093547e-03 0.000000e+00
 -8.643252e-02 7.634886e-03 0.000000e+00
 -9.196490e-02 1.050973e-02 0.000000e+00
 -9.499232e-02 1.050809e-02 0.000000e+00
 -8.010377e-03 8.531200e-02 0.000000e+00
 -1.532526e-02 8.667966e-02 0.000000e+00
 1.568463e-03 9.979333e-02 0.000000e+00
 1.279754e-03 9.794291e-02 0.000000e+00
 1.389569e-03 9.339263e-02 0.000000e+00
 -1.207433e-02 1.040849e-01 0.000000e+00
 -1.328885e-02 1.001636e-01 0.000000e+00
 -2.435921e-02 1.026482e-01 0.000000e+00
 -9.820925e-02 1.176552e-02 0.000000e+00
 -9.741306e-02 1.196041e-02 0.000000e+00
 -9.919228e-02 1.177616e-02 0.000000e+00
 -6.929407e-02 8.125545e-03 0.000000e+00
 -7.786743e-02 9.416490e-03 0.000000e+00
 -5.837097e-02 5.382791e-03 0.000000e+00
 -1.026635e-01 1.287726e-02 0.000000e+00
 -9.978653e-02 1.235614e-02 0.000000e+00
 -9.724692e-02 1.310176e-02 0.000000e+00
 -6.950077e-02 1.792704e-02 0.000000e+00
 -7.195228e-02 1.440140e-02 0.000000e+00
 -6.272734e-02 1.144954e-02 0.000000e+00
 -1.204032e-01 1.964985e-02 0.000000e+00
 -1.216959e-01 2.667408e-02 0.000000e+00
 -3.534011e-02 6.941447e-03 0.000000e+00
 -4.384496e-02 6.200196e-03 0.000000e+00
 -3.216939e-02 1.892336e-03 0.000000e+00
 -1.534227e-02 -4.841292e-04 0.000000e+00
 -1.898481e-03 -5.196289e-04 0.000000e+00
 -3.195316e-02 4.310153e-02 0.000000e+00
 -2.271782e-02 4.463299e-02 0.000000e+00
 -2.474031e-02 5.442146e-02 0.000000e+00
 -7.879188e-02 1.296837e-02 0.000000e+00
 -6.745683e-02 9.138286e-03 0.000000e+00
 1.831137e-03 9.878921e-02 0.000000e+00
 2.485327e-03 9.857743e-02 0.000000e+00
 4.225737e-03 8.436223e-02 0.000000e+00
 3.654092e-03 9.503604e-02 0.000000e+00
 3.506725e-03 8.844099e-02 0.000000e+00
 3.412951e-04 8.686411e-02 0.000000e+00
 -1.408549e-03 9.196860e-02 0.000000e+00
 -8.695669e-05 7.567553e-02 0.000000e+00
 1.179570e-03 9.961350e-02 0.000000e+00
 -1.522102e-02 3.575304e-03 0.000000e+00
 -1.729244e-02 1.023019e-02 0.000000e+00
 -2.699410e-02 8.717756e-03 0.000000e+00
 -7.582396e-03 1.823480e-02 0.000000e+00
 -1.423890e-02 1.564459e-02 0.000000e+00
 1.237418e-03 8.516494e-02 0.000000e+00
 1.172622e-03 7.594196e-02 0.000000e+00
 1.700381e-03 1.002384e-01 0.000000e+00
 1.332741e-03 9.703803e-02 0.000000e+00
 1.482315e-03 9.993514e-02 0.000000e+00
 -7.980041e-02 1.185793e-02 0.000000e+00
 -6.494697e-02 7.603416e-03 0.000000e+00
 -2.466003e-02 9.682469e-04 0.000000e+00
 -4.380746e-02 3.075182e-03 0.000000e+00
 -4.222730e-02 3.315133e-03 0.000000e+00
 -5.361787e-03 8.100937e-02 0.000000e+00
 -2.139769e-02 8.642232e-02 0.000000e+00
 -1.169810e-01 4.113806e-02 0.000000e+00
 -9.424447e-03 5.007832e-04 0.000000e+00
 0.000000e+00 0.000000e+00 0.000000e+00
 -5.372467e-02 5.361319e-03 0.000000e+00
 -2.704597e-02 6.006074e-02 0.000000e+00
 -2.041934e-02 7.199125e-02 0.000000e+00
 -2.852194e-02 6.789707e-02 0.000000e+00
 -5.668563e-03 3.220956e-02 0.000000e+00
 -8.780282e-03 4.712953e-02 0.000000e+00
 -1.194873e-02 4.187549e-02 0.000000e+00
 2.819520e-03 8.016675e-02 0.000000e+00
 1.812118e-03 7.150110e-02 0.000000e+00
 2.094342e-03 5.820606e-02 0.000000e+00
 -7.663115e-02 4.741360e-02 0.000000e+00
 -7.560965e-02 6.299447e-02 0.000000e+00
 -8.946123e-02 5.464248e-02 0.000000e+00
 -2.406795e-03 9.878728e-02 0.000000e+00
 -3.807904e-03 9.401132e-02 0.000000e+00
 -6.159620e-05 1.159811e-02 0.000000e+00
 -3.674283e-05 1.287564e-02 0.000000e+00
 0.000000e+00 0.000000e+00 0.000000e+00
 -7.902374e-03 9.583447e-02 0.000000e+00
 -1.427482e-02 9.574887e-02 0.000000e+00
 -6.055192e-02 7.024661e-02 0.000000e+00
 -4.498186e-02 6.671302e-02 0.000000e+00
 -1.243314e-02 6.477849e-02 0.000000e+00
 -1.745332e-02 5.856192e-02 0.000000e+00
 -1.125897e-02 5.786643e-02 0.000000e+00
 -8.607084e-02 9.456647e-03 0.000000e+00
 -9.351558e-02 1.198736e-02 0.000000e+00
 -1.035303e-01 8.676442e-03 0.000000e+00
 -9.418903e-02 6.762550e-03 0.000000e+00
 -1.098523e-01 1.120114e-02 0.000000e+00
 -8.637531e-02 2.042377e-02 0.000000e+00
 -7.519165e-02 1.441476e-02 0.000000e+00
 -1.148881e-01 1.679830e-02 0.000000e+00
 -1.145475e-01 1.330599e-02 0.000000e+00
 -5.115808e-02 7.065576e-03 0.000000e+00
 -1.045191e-01 5.127945e-02 0.000000e+00
 -1.003223e-01 6.595903e-02 0.000000e+00
 0.000000e+00 0.000000e+00 0.000000e+00
 -2.222075e-03 1.026430e-01 0.000000e+00
 1.203438e-03 9.803279e-02 0.000000e+00
 4.368041e-03 9.157363e-02 0.000000e+00
 3.323682e-03 8.792832e-02 0.000000e+00
 2.407225e-03 9.970949e-02 0.000000e+00
 3.127761e-03 9.812531e-02 0.000000e+00
 -9.592632e-02 7.933982e-03 0.000000e+00
 -1.042633e-01 1.040010e-02 0.000000e+00
 -9.154764e-02 6.675840e-03 0.000000e+00
 -1.035218e-01 1.432552e-02 0.000000e+00
 -1.090547e-01 1.207449e-02 0.000000e+00
 -1.063452e-01 1.289215e-02 0.000000e+00
 -6.683408e-02 4.619970e-03 0.000000e+00
 -7.329550e-02 5.228985e-03 0.000000e+00
 -5.901990e-02 2.743065e-03 0.000000e+00
 -8.540414e-02 5.568637e-03 0.000000e+00
 -9.960942e-02 1.013944e-02 0.000000e+00
 -3.338316e-02 1.603023e-02 0.000000e+00
 -3.170329e-02 7.112540e-02 0.000000e+00
 -4.564761e-02 9.452721e-02 0.000000e+00
 3.418770e-03 5.039064e-02 0.000000e+00
 4.660360e-03 5.556509e-02 0.000000e+00
 4.563130e-03 7.358738e-02 0.000000e+00
 1.578625e-03 2.398719e-02 0.000000e+00
 2.786880e-03 7.319459e-02 0.000000e+00
 5.167842e-03 5.896668e-02 0.000000e+00
 -2.905416e-02 4.608145e-04 0.000000e+00
 -2.322391e-02 1.032469e-04 0.000000e+00
 -3.184096e-02 6.889366e-04 0.000000e+00
 7.952584e-05 3.710719e-02 0.000000e+00
 -2.947526e-04 6.387054e-02 0.000000e+00
 8.207340e-04 5.270334e-02 0.000000e+00
 1.051606e-03 6.797115e-02 0.000000e+00
 9.907516e-04 7.747676e-02 0.000000e+00
 1.873618e-03 1.007435e-01 0.000000e+00
 1.900062e-03 1.006128e-01 0.000000e+00
 7.930860e-04 9.386748e-02 0.000000e+00
 -8.615062e-02 1.180291e-02 0.000000e+00
 -8.141173e-02 9.322282e-03 0.000000e+00
 -6.297736e-02 4.589650e-03 0.000000e+00
 -5.546834e-02 4.129549e-03 0.000000e+00
 -7.557676e-02 7.035172e-03 0.000000e+00
 1.554036e-03 8.566660e-02 0.000000e+00
 1.270643e-03 9.445944e-02 0.000000e+00
 6.229622e-04 5.747930e-02 0.000000e+00
 1.010807e-03 8.516148e-02 0.000000e+00
 -4.532100e-02 9.727432e-02 0.000000e+00
 -6.255935e-02 9.140198e-02 0.000000e+00
 -8.147155e-02 8.198949e-02 0.000000e+00
 -6.816701e-02 7.946041e-02 0.000000e+00
 -8.827544e-02 6.738674e-03 0.000000e+00
 -8.586665e-02 1.643162e-02 0.000000e+00
 -8.981485e-02 7.289192e-03 0.000000e+00
 -8.657075e-02 1.442126e-02 0.000000e+00
 -7.122748e-02 2.494779e-02 0.000000e+00
 -6.658177e-02 3.382024e-02 0.000000e+00
 -1.010184e-01 3.661521e-02 0.000000e+00