<?xml version="1.0"?>
<VTKFile type="UnstructuredGrid"  version="0.1"  >
<UnstructuredGrid>
<Piece  NumberOfPoints="505" NumberOfCells="928">
<Points>
<DataArray  type="Float32"  NumberOfComponents="3"  format="ascii">
0 0 0
1 0 0
0 1 0
1 0.5 0
0.5 0.5 0
0.5 1 0
0.1 0 0
0.2 0 0
0.3 0 0
0.4 0 0
0.5 0 0
0.6 0 0
0.7 0 0
0.8 0 0
0.9 0 0
0 0.9 0
0 0.8 0
0 0.7 0
0 0.6 0
0 0.5 0
0 0.4 0
0 0.3 0
0 0.2 0
0 0.1 0
0.9 0.5 0
0.8 0.5 0
0.7 0.5 0
0.6 0.5 0
0.5 0.6 0
0.5 0.7 0
0.5 0.8 0
0.5 0.9 0
0.1 1 0
0.2 1 0
0.3 1 0
0.4 1 0
1 0.1 0
1 0.2 0
1 0.3 0
1 0.4 0
0.300178 0.296564 0
0.247566 0.664879 0
0.639694 0.259804 0
0.06564 0.06472 0
0.04439 0.954144 0
0.932418 0.064715 0
0.951013 0.456419 0
0.437622 0.939659 0
0.195334 0.464441 0
0.483382 0.329596 0
0.834786 0.236295 0
0.307228 0.81139 0
0.178229 0.173372 0
0.366998 0.134199 0
0.547485 0.14214 0
0.124832 0.74927 0
0.160163 0.896658 0
0.342556 0.535243 0
0.147651 0.342018 0
0.729803 0.127878 0
0.725981 0.357775 0
0.121369 0.600441 0
0.372954 0.70814 0
0.908503 0.151525 0
0.89851 0.333305 0
0.556275 0.400898 0
0.259184 0.092178 0
0.46329 0.194362 0
0.423773 0.869712 0
0.22823 0.818162 0
0.081292 0.144905 0
0.082979 0.831935 0
0.549999 0.065419 0
0.371537 0.407588 0
0.642628 0.097865 0
0.459835 0.086595 0
0.108565 0.418567 0
0.273082 0.902112 0
0.256598 0.556659 0
0.11951 0.509541 0
0.234147 0.370527 0
0.097453 0.253261 0
0.638438 0.342389 0
0.554656 0.224779 0
0.373432 0.237603 0
0.339663 0.62579 0
0.27079 0.747786 0
0.733958 0.266592 0
0.928527 0.244458 0
0.853116 0.071497 0
0.818426 0.404817 0
0.280194 0.200604 0
0.417859 0.565185 0
0.147241 0.079056 0
0.389149 0.789957 0
0.42808 0.654642 0
0.343469 0.059202 0
0.086765 0.684153 0
0.162043 0.675011 0
0.809252 0.14201 0
0.364337 0.928607 0
0.077532 0.916553 0
0.159064 0.807906 0
0.302124 0.454032 0
0.205909 0.272176 0
0.449664 0.407415 0
0.66041 0.423241 0
0.562201 0.303789 0
0.802658 0.320211 0
0.614551 0.182931 0
0.390944 0.331035 0
0.687136 0.18846 0
0.070577 0.342498 0
0.741087 0.437361 0
0.176989 0.547528 0
0.710251 0.07409 0
0.192845 0.608574 0
0.171114 0.398277 0
0.058959 0.753084 0
0.904 0.425508 0
0.438039 0.730373 0
0.057223 0.475897 0
0.058502 0.552106 0
0.330493 0.750997 0
0.312295 0.699131 0
0.684882 0.307111 0
0.053312 0.627311 0
0.198798 0.743695 0
0.392326 0.069953 0
0.351519 0.860283 0
0.397134 0.477694 0
0.319385 0.371198 0
0.767351 0.069505 0
0.441954 0.271171 0
0.759504 0.192785 0
0.855661 0.457701 0
0.500847 0.264652 0
0.916209 0.0323575 0
0.966209 0.0323575 0
0.95 0 0
0.578137 0.450449 0
0.528137 0.450449 0
0.55 0.5 0
0.03282 0.08236 0
0.03282 0.03236 0
0 0.05 0
0.502969 0.404157 0
0.474832 0.453708 0
0.468811 0.91983 0
0.468811 0.96983 0
0.5 0.95 0
0.072195 0.977072 0
0.022195 0.977072 0
0.05 1 0
0.022195 0.927072 0
0 0.95 0
0.060961 0.935348 0
0.038766 0.908276 0
0.106441 0.071888 0
0.123621 0.039528 0
0.08282 0.03236 0
0.0414895 0.815967 0
0.0414895 0.865968 0
0 0.85 0
0.173621 0.039528 0
0.15 0 0
0.05 0 0
0.301327 0.07569 0
0.321735 0.029601 0
0.279592 0.046089 0
0.070969 0.792509 0
0.0294795 0.776542 0
0.0294795 0.726542 0
0 0.75 0
0.114267 0.111981 0
0.073466 0.104813 0
0.229592 0.046089 0
0.25 0 0
0.371735 0.029601 0
0.35 0 0
0.479917 0.0432975 0
0.429918 0.0432975 0
0.45 0 0
0.461562 0.140479 0
0.413416 0.110397 0
0.415144 0.16428 0
0.574999 0.0327095 0
0.525 0.0327095 0
0.55 0 0
0.596313 0.081642 0
0.621314 0.0489325 0
0.927507 0.440964 0
0.902 0.462754 0
0.925507 0.47821 0
0.0700385 0.655732 0
0.026656 0.663655 0
0.0433825 0.692076 0
0.026656 0.613655 0
0 0.65 0
0.276766 0.370862 0
0.309781 0.333881 0
0.267162 0.333545 0
0.458929 0.582593 0
0.458929 0.532593 0
0.5 0.55 0
0.422969 0.609913 0
0.46404 0.627321 0
0.43306 0.692508 0
0.46902 0.715186 0
0.46404 0.677321 0
0.46902 0.765186 0
0.5 0.75 0
0.180082 0.948329 0
0.130082 0.948329 0
0.15 1 0
0.87983 0.441605 0
0.87783 0.478851 0
0.975507 0.42821 0
0.975507 0.47821 0
1 0.45 0
0.676439 0.0859775 0
0.705125 0.037045 0
0.671314 0.0489325 0
0.779756 0.421089 0
0.770544 0.46868 0
0.809213 0.452408 0
0.738801 0.0717975 0
0.733675 0.0347525 0
0.95 0.5 0
0.720544 0.46868 0
0.75 0.5 0
0.029251 0.526053 0
0.029251 0.576053 0
0 0.55 0
0.089006 0.530824 0
0.0899355 0.576273 0
0.12044 0.554991 0
0.461886 0.884856 0
0.461886 0.834856 0
0.5 0.85 0
0.089571 0.380533 0
0.0352885 0.371249 0
0.0542825 0.409284 0
0.918515 0.197991 0
0.964263 0.222229 0
0.954252 0.175762 0
0.630205 0.46162 0
0.680205 0.46162 0
0.65 0.5 0
0.0352885 0.321249 0
0 0.35 0
0.0487265 0.226631 0
0.0487265 0.276631 0
0 0.25 0
0.286541 0.951056 0
0.236541 0.951056 0
0.25 1 0
0.382169 0.964303 0
0.332168 0.964303 0
0.35 1 0
0.966209 0.0823575 0
1 0.05 0
0.876558 0.0357485 0
0.826558 0.0357485 0
0.85 0 0
0.710547 0.227526 0
0.663415 0.224132 0
0.686826 0.263198 0
0.964263 0.272229 0
1 0.25 0
0.40098 0.934133 0
0.418811 0.96983 0
0.45 1 0
0.326813 0.219104 0
0.290186 0.248584 0
0.336805 0.267084 0
0.243052 0.23639 0
0.253043 0.28437 0
0.224721 0.582616 0
0.220205 0.636726 0
0.252082 0.610769 0
0.92046 0.10812 0
0.954252 0.125762 0
0.66166 0.32475 0
0.662288 0.283458 0
0.639066 0.301096 0
0.949255 0.366653 0
0.949255 0.316653 0
1 0.35 0
0.291542 0.723459 0
0.27993 0.682005 0
0.259178 0.706333 0
0.394055 0.89916 0
0.430698 0.904686 0
0.531524 0.28422 0
0.492115 0.297124 0
0.522791 0.316692 0
0.040646 0.122453 0
0.040646 0.172453 0
0 0.15 0
1 0.15 0
0.151681 0.262718 0
0.192069 0.222774 0
0.137841 0.213317 0
0.558428 0.264284 0
0.600947 0.281797 0
0.597175 0.242291 0
0.508973 0.20957 0
0.551071 0.183459 0
0.505387 0.168251 0
0.118847 0.906605 0
0.088766 0.958276 0
0.3123 0.881198 0
0.329373 0.835836 0
0.290155 0.856751 0
0.18042 0.709353 0
0.223182 0.704287 0
0.204805 0.669945 0
0.114037 0.464054 0
0.157422 0.486991 0
0.15195 0.441504 0
0.279361 0.505346 0
0.248729 0.459236 0
0.225966 0.51055 0
0.423399 0.442555 0
0.448567 0.488847 0
0.892767 0.068106 0
0.65 0 0
0.901255 0.379406 0
0.952 0.412754 0
0.858877 0.146767 0
0.822019 0.189153 0
0.871644 0.19391 0
0.14825 0.528535 0
0.186162 0.505985 0
0.178931 0.775801 0
0.161815 0.746482 0
0.141948 0.778588 0
0.29813 0.591225 0
0.34111 0.580516 0
0.299577 0.545951 0
0.913519 0.288882 0
0.881657 0.240376 0
0.866648 0.2848 0
0.664882 0.143162 0
0.708469 0.158169 0
0.686215 0.112871 0
0.768308 0.293401 0
0.818722 0.278253 0
0.784372 0.251443 0
0.407693 0.254387 0
0.452622 0.232766 0
0.418361 0.215983 0
0.559238 0.352343 0
0.519829 0.365247 0
0.269689 0.146391 0
0.323596 0.167402 0
0.313091 0.113188 0
0.367897 0.0645775 0
0.396163 0.0349765 0
0.220028 0.321352 0
0.17678 0.307097 0
0.190899 0.356272 0
0.584604 0.203855 0
0.581018 0.162535 0
0.250656 0.860137 0
0.267729 0.814776 0
0.359821 0.770477 0
0.31886 0.781193 0
0.348189 0.800674 0
0.124404 0.679582 0
0.141706 0.637726 0
0.104067 0.642297 0
0.216622 0.899385 0
0.203213 0.085617 0
0.162735 0.126214 0
0.218707 0.132775 0
0.0893725 0.199083 0
0.129761 0.159139 0
0.121022 0.819921 0
0.103905 0.790602 0
0.193647 0.813034 0
0.159614 0.852282 0
0.194196 0.85741 0
0.650843 0.185696 0
0.628589 0.140398 0
0.504917 0.076007 0
0.50366 0.114367 0
0.548742 0.103779 0
0.378761 0.595487 0
0.380208 0.550214 0
0.466523 0.368506 0
0.783675 0.0347525 0
0.75 0 0
0.595056 0.120002 0
0.20263 0.384402 0
0.183224 0.431359 0
0.214741 0.417484 0
0.084015 0.29788 0
0.109114 0.342258 0
0.122552 0.29764 0
0.370334 0.82512 0
0.387646 0.864998 0
0.406461 0.829835 0
0.355164 0.351116 0
0.345461 0.389393 0
0.38124 0.369312 0
0.177444 0.641792 0
0.157107 0.604507 0
0.0286115 0.437949 0
0.0286115 0.487949 0
0 0.45 0
0.184917 0.578051 0
0.216794 0.552094 0
0.310754 0.412615 0
0.268135 0.41228 0
0.13984 0.408422 0
0.159382 0.370147 0
0.128108 0.380293 0
0.784378 0.167398 0
0.797145 0.21454 0
0.649424 0.382815 0
0.693196 0.390508 0
0.682209 0.350082 0
0.471401 0.267911 0
0.482069 0.229507 0
0.600319 0.323089 0
0.597356 0.371644 0
0.370215 0.185901 0
0.420304 0.369225 0
0.410601 0.407502 0
0.5 0.65 0
0.293615 0.645334 0
0.325979 0.66246 0
0.342624 0.703635 0
0.356309 0.666965 0
0.24951 0.782974 0
0.289009 0.779588 0
0.810542 0.362514 0
0.76432 0.338993 0
0.772204 0.381296 0
0.70942 0.286852 0
0.705431 0.332443 0
0.729969 0.312184 0
0.831184 0.106754 0
0.88081 0.111511 0
0.700748 0.430301 0
0.733534 0.397568 0
0.850584 0.326758 0
0.229212 0.186988 0
0.407496 0.52144 0
0.369845 0.506468 0
0.413594 0.760165 0
0.405497 0.719256 0
0.381051 0.749049 0
0.444574 0.794979 0
0.383872 0.640216 0
0.400517 0.681391 0
0.355233 0.0967005 0
0.42608 0.078274 0
0.379662 0.102076 0
0.055907 0.589708 0
0.0873405 0.613876 0
0.072862 0.718619 0
0.0918955 0.751177 0
0.105798 0.716711 0
0.234794 0.74574 0
0.213514 0.780928 0
0.143437 0.712141 0
0.72332 0.190623 0
0.744653 0.160332 0
0.788301 0.105758 0
0.748577 0.0986915 0
0.769527 0.134944 0
0.357928 0.894445 0
0.318709 0.915359 0
0.0802555 0.874244 0
0.121571 0.864297 0
0.32234 0.494638 0
0.349629 0.465863 0
0.384335 0.442641 0
0.336831 0.43081 0
0.608343 0.412069 0
0.527752 0.244716 0
0.858468 0.369061 0
0.627123 0.221367 0
0.382188 0.284319 0
0.345561 0.3138 0
0.437163 0.330315 0
0.746731 0.229689 0
0.149179 0.573985 0
0.720027 0.100984 0
0.810234 0.070501 0
0.861213 0.415162 0
0.827831 0.478851 0
0.85 0.5 0
0.082894 0.447232 0
0.0883665 0.492719 0
0.0578625 0.514002 0
0.300642 0.749391 0
0.351723 0.729569 0
0.321394 0.725064 0
0.416449 0.301103 0
0.462668 0.300384 0
0.837044 0.431259 0
</DataArray>
</Points>
<Cells>
<DataArray  type="UInt32"  Name="connectivity"  format="ascii">
1 138 139 
14 137 139 
45 137 138 
137 138 139 
4 141 142 
27 140 142 
65 140 141 
140 141 142 
0 144 145 
23 143 145 
43 143 144 
143 144 145 
4 141 147 
65 141 146 
105 146 147 
141 146 147 
5 149 150 
31 148 150 
47 148 149 
148 149 150 
2 152 153 
32 151 153 
44 151 152 
151 152 153 
2 152 155 
15 154 155 
44 152 154 
152 154 155 
15 154 157 
44 154 156 
101 156 157 
154 156 157 
6 159 160 
43 158 160 
93 158 159 
158 159 160 
15 162 163 
16 161 163 
71 161 162 
161 162 163 
6 159 165 
7 164 165 
93 159 164 
159 164 165 
[...]
<PointData  Vectors="u"> 
<DataArray  type="Float32"  Name="u"  NumberOfComponents="3" format="ascii">
 0.000000e+00 0.000000e+00 0.000000e+00
 0.000000e+00 0.000000e+00 0.000000e+00
 0.000000e+00 0.000000e+00 0.000000e+00
 0.000000e+00 0.000000e+00 0.000000e+00
 0.000000e+00 0.000000e+00 0.000000e+00
 0.000000e+00 0.000000e+00 0.000000e+00
 0.000000e+00 0.000000e+00 0.000000e+00
 0.000000e+00 0.000000e+00 0.000000e+00
 0.000000e+00 0.000000e+00 0.000000e+00
 0.000000e+00 0.000000e+00 0.000000e+00
 0.000000e+00 0.000000e+00 0.000000e+00
 0.000000e+00 0.000000e+00 0.000000e+00
 0.000000e+00 0.000000e+00 0.000000e+00
 0.000000e+00 0.000000e+00 0.000000e+00
 0.000000e+00 0.000000e+00 0.000000e+00
 0.000000e+00 0.000000e+00 0.000000e+00
 0.000000e+00 0.000000e+00 0.000000e+00
 0.000000e+00 0.000000e+00 0.000000e+00
 0.000000e+00 0.000000e+00 0.000000e+00
 0.000000e+00 0.000000e+00 0.000000e+00
 0.000000e+00 0.000000e+00 0.000000e+00
 0.000000e+00 0.000000e+00 0.000000e+00
 0.000000e+00 0.000000e+00 0.000000e+00
 0.000000e+00 0.000000e+00 0.000000e+00
 0.000000e+00 0.000000e+00 0.000000e+00
 0.000000e+00 0.000000e+00 0.000000e+00
 0.000000e+00 0.000000e+00 0.000000e+00
 0.000000e+00 0.000000e+00 0.000000e+00
 0.000000e+00 0.000000e+00 0.000000e+00
 0.000000e+00 0.000000e+00 0.000000e+00
 0.000000e+00 0.000000e+00 0.000000e+00
 0.000000e+00 0.000000e+00 0.000000e+00
 8.769606e-04 -1.716015e-01 0.000000e+00
 1.825724e-03 -1.641340e-01 0.000000e+00
 1.941344e-03 -1.691022e-01 0.000000e+00
 1.069865e-03 -1.813917e-01 0.000000e+00
 1.704249e-01 3.233338e-03 0.000000e+00
 1.640609e-01 6.619405e-03 0.000000e+00
 1.691709e-01 6.827183e-03 0.000000e+00
 1.824766e-01 3.426571e-03 0.000000e+00
 7.537127e-02 -8.630708e-02 0.000000e+00
 2.276551e-02 -1.576439e-01 0.000000e+00
 1.607318e-01 -1.949975e-02 0.000000e+00
 1.010311e-02 -1.005841e-02 0.000000e+00
 3.172647e-04 -1.291206e-01 0.000000e+00
 1.546680e-01 1.200159e-03 0.000000e+00
 1.350087e-01 8.615054e-04 0.000000e+00
 7.580962e-04 -1.610269e-01 0.000000e+00
 3.580590e-02 -1.228677e-01 0.000000e+00
 1.549725e-01 -8.017196e-02 0.000000e+00
 1.637089e-01 1.326684e-03 0.000000e+00
 9.090990e-03 -1.722721e-01 0.000000e+00
 4.552828e-02 -4.644453e-02 0.000000e+00
 1.090125e-01 -3.362811e-02 0.000000e+00
 1.563362e-01 -2.037543e-02 0.000000e+00
 7.349154e-03 -1.643353e-01 0.000000e+00
 3.202279e-03 -1.675890e-01 0.000000e+00
 5.599053e-02 -1.878326e-01 0.000000e+00
 3.125049e-02 -9.390266e-02 0.000000e+00
 1.750759e-01 -3.712151e-03 0.000000e+00
 1.777984e-01 -6.108083e-03 0.000000e+00
 1.392558e-02 -1.478640e-01 0.000000e+00
 1.491085e-02 -1.952421e-01 0.000000e+00
 1.719638e-01 3.210687e-03 0.000000e+00
 1.734521e-01 3.386047e-03 0.000000e+00
 2.073218e-01 -4.670194e-02 0.000000e+00
 7.180465e-02 -2.079937e-02 0.000000e+00
 1.323810e-01 -4.308185e-02 0.000000e+00
 1.964047e-03 -1.744395e-01 0.000000e+00
 8.432874e-03 -1.612658e-01 0.000000e+00
 1.628363e-02 -3.446789e-02 0.000000e+00
 2.359063e-03 -1.625677e-01 0.000000e+00
 1.390159e-01 -6.622270e-03 0.000000e+00
 1.040356e-01 -1.436614e-01 0.000000e+00
 1.669800e-01 -6.508270e-03 0.000000e+00
 1.319784e-01 -1.493822e-02 0.000000e+00
 1.891440e-02 -1.120701e-01 0.000000e+00
 4.154578e-03 -1.653306e-01 0.000000e+00
 3.746085e-02 -1.492145e-01 0.000000e+00
 1.788604e-02 -1.322336e-01 0.000000e+00
 5.178871e-02 -1.032911e-01 0.000000e+00
 1.945431e-02 -6.764882e-02 0.000000e+00
 1.786333e-01 -2.020287e-02 0.000000e+00
 1.508108e-01 -3.336462e-02 0.000000e+00
 1.023083e-01 -6.618503e-02 0.000000e+00
 3.060838e-02 -1.899631e-01 0.000000e+00
 1.473313e-02 -1.647426e-01 0.000000e+00
 1.633711e-01 -6.160361e-03 0.000000e+00
 1.633367e-01 5.484479e-03 0.000000e+00
 1.617474e-01 2.544077e-04 0.000000e+00
 1.773271e-01 -3.382207e-04 0.000000e+00
 7.548959e-02 -5.619180e-02 0.000000e+00
 3.944730e-02 -2.255459e-01 0.000000e+00
 3.507620e-02 -1.648716e-02 0.000000e+00
 6.795128e-03 -1.893362e-01 0.000000e+00
 1.219050e-02 -1.950386e-01 0.000000e+00
 8.650867e-02 -1.041857e-02 0.000000e+00
 6.239803e-03 -1.536757e-01 0.000000e+00
 1.468377e-02 -1.551741e-01 0.000000e+00
 1.748269e-01 -3.726153e-04 0.000000e+00
 2.284701e-03 -1.819424e-01 0.000000e+00
 1.036137e-03 -1.628650e-01 0.000000e+00
 6.702970e-03 -1.649051e-01 0.000000e+00
 6.375500e-02 -1.413515e-01 0.000000e+00
 4.931208e-02 -7.564646e-02 0.000000e+00
 1.709765e-01 -1.447998e-01 0.000000e+00
 1.785492e-01 -6.525561e-03 0.000000e+00
 1.636291e-01 -4.286924e-02 0.000000e+00
 1.698562e-01 -8.755269e-04 0.000000e+00
 1.615744e-01 -1.761397e-02 0.000000e+00
 1.102134e-01 -1.004881e-01 0.000000e+00
 1.660966e-01 -9.218001e-03 0.000000e+00
 1.137150e-02 -8.468225e-02 0.000000e+00
 1.603085e-01 -1.618886e-03 0.000000e+00
 2.598843e-02 -1.378301e-01 0.000000e+00
 1.617753e-01 -2.320139e-03 0.000000e+00
 2.323759e-02 -1.468020e-01 0.000000e+00
 3.458677e-02 -1.077515e-01 0.000000e+00
 2.396418e-03 -1.414152e-01 0.000000e+00
 1.695653e-01 1.156435e-03 0.000000e+00
 5.071976e-03 -1.727000e-01 0.000000e+00
 6.677401e-03 -1.054226e-01 0.000000e+00
 5.663443e-03 -1.193451e-01 0.000000e+00
 1.347345e-02 -1.803100e-01 0.000000e+00
 1.990146e-02 -1.762112e-01 0.000000e+00
 1.680828e-01 -1.245902e-02 0.000000e+00
 3.755525e-03 -1.242858e-01 0.000000e+00
 1.262961e-02 -1.585245e-01 0.000000e+00
 1.068338e-01 -1.268383e-02 0.000000e+00
 4.979706e-03 -1.813237e-01 0.000000e+00
 1.039912e-01 -2.065756e-01 0.000000e+00
 7.838519e-02 -1.139050e-01 0.000000e+00
 1.597894e-01 -1.007450e-03 0.000000e+00
 1.249622e-01 -6.933708e-02 0.000000e+00
 1.673990e-01 -3.152890e-03 0.000000e+00
 1.309603e-01 1.231629e-04 0.000000e+00
 1.421377e-01 -5.403435e-02 0.000000e+00
 1.060368e-01 3.137811e-04 0.000000e+00
 1.050334e-01 6.818598e-04 0.000000e+00
 0.000000e+00 0.000000e+00 0.000000e+00
 1.701183e-01 -1.502823e-02 0.000000e+00
 2.016153e-01 -7.637569e-02 0.000000e+00
 0.000000e+00 0.000000e+00 0.000000e+00
 3.905214e-03 -9.276754e-03 0.000000e+00
 2.138605e-03 -2.112454e-03 0.000000e+00
 0.000000e+00 0.000000e+00 0.000000e+00
 2.071548e-01 -1.012353e-01 0.000000e+00
 1.901853e-01 -1.720466e-01 0.000000e+00
 3.017346e-04 -1.088543e-01 0.000000e+00
 2.729077e-04 -1.083764e-01 0.000000e+00
 0.000000e+00 0.000000e+00 0.000000e+00
 5.829982e-04 -1.600706e-01 0.000000e+00
 1.328076e-04 -8.122108e-02 0.000000e+00
 3.538441e-04 -1.380592e-01 0.000000e+00
 1.457446e-04 -8.059832e-02 0.000000e+00
 0.000000e+00 0.000000e+00 0.000000e+00
 6.001702e-04 -1.503029e-01 0.000000e+00
 3.939306e-04 -1.192487e-01 0.000000e+00
 2.169231e-02 -1.392396e-02 0.000000e+00
 1.982980e-02 -5.684847e-03 0.000000e+00
 9.361115e-03 -3.922753e-03 0.000000e+00
 8.766365e-04 -1.199148e-01 0.000000e+00
 6.096957e-04 -1.214186e-01 0.000000e+00
 0.000000e+00 0.000000e+00 0.000000e+00
 3.120605e-02 -5.799633e-03 0.000000e+00
 0.000000e+00 0.000000e+00 0.000000e+00
 0.000000e+00 0.000000e+00 0.000000e+00
 8.197621e-02 -1.543961e-02 0.000000e+00
 5.385187e-02 -3.712945e-03 0.000000e+00
 5.988640e-02 -7.238767e-03 0.000000e+00
 2.482823e-03 -1.539190e-01 0.000000e+00
 6.857409e-04 -9.561962e-02 0.000000e+00
 9.603872e-04 -9.335864e-02 0.000000e+00
 0.000000e+00 0.000000e+00 0.000000e+00
 2.662941e-02 -2.658005e-02 0.000000e+00
 1.391521e-02 -2.149594e-02 0.000000e+00
 4.771811e-02 -7.290075e-03 0.000000e+00
 0.000000e+00 0.000000e+00 0.000000e+00
 6.240914e-02 -3.436294e-03 0.000000e+00
 0.000000e+00 0.000000e+00 0.000000e+00
 1.019520e-01 -4.785030e-03 0.000000e+00
 9.244437e-02 -5.528052e-03 0.000000e+00
 0.000000e+00 0.000000e+00 0.000000e+00
 1.370121e-01 -2.908656e-02 0.000000e+00
 1.238590e-01 -2.412941e-02 0.000000e+00
 1.217797e-01 -3.998985e-02 0.000000e+00
 9.769279e-02 -1.942947e-03 0.000000e+00
 9.221987e-02 -2.593470e-03 0.000000e+00
 0.000000e+00 0.000000e+00 0.000000e+00
 1.560522e-01 -7.025619e-03 0.000000e+00
 1.284568e-01 -2.659674e-03 0.000000e+00
 1.563831e-01 1.061717e-03 0.000000e+00
 1.221263e-01 3.419512e-04 0.000000e+00
 8.352099e-02 2.065532e-04 0.000000e+00
 5.112599e-03 -1.420723e-01 0.000000e+00
 1.114929e-03 -8.361683e-02 0.000000e+00
 2.069812e-03 -1.177560e-01 0.000000e+00
 1.360305e-03 -8.006523e-02 0.000000e+00
 0.000000e+00 0.000000e+00 0.000000e+00
 6.386575e-02 -1.078935e-01 0.000000e+00
 7.666748e-02 -9.924259e-02 0.000000e+00
 6.309934e-02 -9.546404e-02 0.000000e+00
 1.486178e-02 -1.746254e-01 0.000000e+00
 5.391510e-02 -2.053255e-01 0.000000e+00
 0.000000e+00 0.000000e+00 0.000000e+00
 2.123562e-02 -2.102380e-01 0.000000e+00
 6.080233e-03 -1.451125e-01 0.000000e+00
 7.792305e-03 -1.832680e-01 0.000000e+00
 2.057988e-03 -1.178729e-01 0.000000e+00
 3.559311e-03 -1.349256e-01 0.000000e+00
 1.371359e-03 -1.142297e-01 0.000000e+00
 0.000000e+00 0.000000e+00 0.000000e+00
 2.164148e-03 -1.658912e-01 0.000000e+00
 1.551118e-03 -1.720364e-01 0.000000e+00
 1.414346e-03 -1.701660e-01 0.000000e+00
 1.545611e-01 4.980901e-04 0.000000e+00
 8.112590e-02 8.700923e-05 0.000000e+00
 1.697699e-01 2.109835e-03 0.000000e+00
 8.474992e-02 4.936213e-04 0.000000e+00
 1.468272e-01 1.455289e-03 0.000000e+00
 1.660284e-01 -3.990884e-03 0.000000e+00
 1.160138e-01 -9.277966e-04 0.000000e+00
 1.317002e-01 -1.830948e-03 0.000000e+00
 1.714259e-01 -1.174204e-03 0.000000e+00
 1.080732e-01 -3.180582e-04 0.000000e+00
 1.399578e-01 -2.394556e-04 0.000000e+00
 1.609565e-01 -1.599199e-03 0.000000e+00
 1.101719e-01 -6.146681e-04 0.000000e+00
 0.000000e+00 0.000000e+00 0.000000e+00
 1.093287e-01 -6.303367e-04 0.000000e+00
 0.000000e+00 0.000000e+00 0.000000e+00
 2.090971e-03 -7.693183e-02 0.000000e+00
 1.779280e-03 -8.184734e-02 0.000000e+00
 0.000000e+00 0.000000e+00 0.000000e+00
 1.129923e-02 -1.323596e-01 0.000000e+00
 1.002826e-02 -1.402752e-01 0.000000e+00
 1.593808e-02 -1.405316e-01 0.000000e+00
 5.513857e-04 -1.244322e-01 0.000000e+00
 9.554852e-04 -1.264806e-01 0.000000e+00
 0.000000e+00 0.000000e+00 0.000000e+00
 1.528803e-02 -9.987484e-02 0.000000e+00
 4.009880e-03 -6.406517e-02 0.000000e+00
 7.134389e-03 -9.029407e-02 0.000000e+00
 1.656283e-01 4.603243e-03 0.000000e+00
 1.632126e-01 6.455878e-03 0.000000e+00
 1.673404e-01 5.261050e-03 0.000000e+00
 1.328755e-01 -2.410275e-03 0.000000e+00
 1.265519e-01 -1.408008e-03 0.000000e+00
 0.000000e+00 0.000000e+00 0.000000e+00
 4.186076e-03 -5.550898e-02 0.000000e+00
 0.000000e+00 0.000000e+00 0.000000e+00
 7.081687e-03 -4.619997e-02 0.000000e+00
 6.827545e-03 -5.711470e-02 0.000000e+00
 0.000000e+00 0.000000e+00 0.000000e+00
 2.514631e-03 -1.670456e-01 0.000000e+00
 2.516659e-03 -1.627723e-01 0.000000e+00
 2.017533e-03 -1.633408e-01 0.000000e+00
 1.441273e-03 -1.829701e-01 0.000000e+00
 2.002283e-03 -1.754642e-01 0.000000e+00
 1.604745e-03 -1.788382e-01 0.000000e+00
 1.653764e-01 2.281079e-03 0.000000e+00
 1.363241e-01 1.387539e-03 0.000000e+00
 1.134964e-01 1.496587e-04 0.000000e+00
 1.137330e-01 -8.532453e-05 0.000000e+00
 0.000000e+00 0.000000e+00 0.000000e+00
 1.631619e-01 -8.053547e-03 0.000000e+00
 1.616804e-01 -1.375624e-02 0.000000e+00
 1.624923e-01 -1.184353e-02 0.000000e+00
 1.650296e-01 6.606484e-03 0.000000e+00
 1.633419e-01 7.208524e-03 0.000000e+00
 1.500990e-03 -1.819425e-01 0.000000e+00
 9.015991e-04 -1.749411e-01 0.000000e+00
 4.806802e-04 -1.450502e-01 0.000000e+00
 8.887026e-02 -6.204651e-02 0.000000e+00
 7.516519e-02 -7.136040e-02 0.000000e+00
 8.875441e-02 -7.735740e-02 0.000000e+00
 6.169728e-02 -6.636274e-02 0.000000e+00
 6.203947e-02 -8.071568e-02 0.000000e+00
 2.967793e-02 -1.460701e-01 0.000000e+00
 2.363451e-02 -1.514250e-01 0.000000e+00
 2.962364e-02 -1.546413e-01 0.000000e+00
 1.738514e-01 2.297132e-03 0.000000e+00
 1.730527e-01 3.675543e-03 0.000000e+00
 1.724484e-01 -1.609791e-02 0.000000e+00
 1.640291e-01 -1.604697e-02 0.000000e+00
 1.669218e-01 -2.098342e-02 0.000000e+00
 1.808414e-01 4.068247e-03 0.000000e+00
 1.715056e-01 5.514632e-03 0.000000e+00
 1.792358e-01 5.467333e-03 0.000000e+00
 1.734923e-02 -1.694978e-01 0.000000e+00
 2.204820e-02 -1.660408e-01 0.000000e+00
 1.864064e-02 -1.616724e-01 0.000000e+00
 2.323419e-03 -1.838185e-01 0.000000e+00
 1.198077e-03 -1.682695e-01 0.000000e+00
 1.527403e-01 -4.990813e-02 0.000000e+00
 1.462044e-01 -6.547677e-02 0.000000e+00
 1.619316e-01 -5.987910e-02 0.000000e+00
 5.667757e-03 -1.957712e-02 0.000000e+00
 5.656955e-03 -3.045225e-02 0.000000e+00
 0.000000e+00 0.000000e+00 0.000000e+00
 1.697166e-01 5.169405e-03 0.000000e+00
 3.469398e-02 -7.255711e-02 0.000000e+00
 4.739090e-02 -6.139964e-02 0.000000e+00
 3.191902e-02 -5.832402e-02 0.000000e+00
 1.537626e-01 -3.853554e-02 0.000000e+00
 1.613355e-01 -2.936432e-02 0.000000e+00
 1.566449e-01 -2.677255e-02 0.000000e+00
 1.426229e-01 -3.931239e-02 0.000000e+00
 1.527873e-01 -2.723216e-02 0.000000e+00
 1.452877e-01 -3.079346e-02 0.000000e+00
 2.046713e-03 -1.716504e-01 0.000000e+00
 8.886092e-04 -1.685583e-01 0.000000e+00
 4.832972e-03 -1.722634e-01 0.000000e+00
 6.935481e-03 -1.770152e-01 0.000000e+00
 6.382296e-03 -1.681661e-01 0.000000e+00
 1.395074e-02 -1.570309e-01 0.000000e+00
 1.723567e-02 -1.568177e-01 0.000000e+00
 1.901866e-02 -1.534738e-01 0.000000e+00
 1.877528e-02 -1.227842e-01 0.000000e+00
 2.641007e-02 -1.270722e-01 0.000000e+00
 2.781796e-02 -1.179463e-01 0.000000e+00
 4.927655e-02 -1.470958e-01 0.000000e+00
 4.793725e-02 -1.278083e-01 0.000000e+00
 3.799436e-02 -1.346949e-01 0.000000e+00
 1.442828e-01 -1.867018e-01 0.000000e+00
 1.271173e-01 -2.262522e-01 0.000000e+00
 1.586429e-01 7.390380e-04 0.000000e+00
 0.000000e+00 0.000000e+00 0.000000e+00
 1.803643e-01 2.339024e-03 0.000000e+00
 1.778227e-01 2.413048e-03 0.000000e+00
 1.736976e-01 1.458416e-03 0.000000e+00
 1.679441e-01 4.719012e-04 0.000000e+00
 1.668197e-01 2.725406e-03 0.000000e+00
 2.230104e-02 -1.354232e-01 0.000000e+00
 3.066013e-02 -1.308269e-01 0.000000e+00
 9.395376e-03 -1.613330e-01 0.000000e+00
 1.015751e-02 -1.611430e-01 0.000000e+00
 7.179896e-03 -1.651780e-01 0.000000e+00
 3.643990e-02 -1.687498e-01 0.000000e+00
 4.163225e-02 -1.911563e-01 0.000000e+00
 4.597826e-02 -1.643461e-01 0.000000e+00
 1.664089e-01 4.722301e-03 0.000000e+00
 1.634918e-01 3.590049e-03 0.000000e+00
 1.654760e-01 2.773138e-03 0.000000e+00
 1.706929e-01 -8.736646e-03 0.000000e+00
 1.711232e-01 -6.078471e-03 0.000000e+00
 1.730395e-01 -5.337974e-03 0.000000e+00
 1.658061e-01 -3.166040e-03 0.000000e+00
 1.645866e-01 3.335921e-04 0.000000e+00
 1.633850e-01 -1.773536e-03 0.000000e+00
 1.131748e-01 -6.872889e-02 0.000000e+00
 1.272657e-01 -5.562683e-02 0.000000e+00
 1.177087e-01 -5.510372e-02 0.000000e+00
 1.852829e-01 -4.872655e-02 0.000000e+00
 1.874679e-01 -7.373055e-02 0.000000e+00
 7.617783e-02 -3.875298e-02 0.000000e+00
 9.217264e-02 -4.548926e-02 0.000000e+00
 9.134318e-02 -2.785980e-02 0.000000e+00
 9.683540e-02 -1.169060e-02 0.000000e+00
 7.629166e-02 -4.290357e-03 0.000000e+00
 5.098911e-02 -8.941763e-02 0.000000e+00
 3.989781e-02 -8.481727e-02 0.000000e+00
 4.164547e-02 -9.736122e-02 0.000000e+00
 1.561328e-01 -2.464954e-02 0.000000e+00
 1.598694e-01 -1.957040e-02 0.000000e+00
 6.193708e-03 -1.629637e-01 0.000000e+00
 9.136523e-03 -1.646535e-01 0.000000e+00
 1.022102e-02 -1.871894e-01 0.000000e+00
 1.119649e-02 -1.759450e-01 0.000000e+00
 8.569393e-03 -1.828279e-01 0.000000e+00
 1.048755e-02 -1.579783e-01 0.000000e+00
 1.468046e-02 -1.523770e-01 0.000000e+00
 9.725591e-03 -1.527215e-01 0.000000e+00
 3.998881e-03 -1.625048e-01 0.000000e+00
 5.305385e-02 -1.850228e-02 0.000000e+00
 4.224154e-02 -3.144484e-02 0.000000e+00
 5.999908e-02 -3.384374e-02 0.000000e+00
 1.787779e-02 -5.121693e-02 0.000000e+00
 3.086342e-02 -4.189681e-02 0.000000e+00
 4.450627e-03 -1.687941e-01 0.000000e+00
 4.454885e-03 -1.663240e-01 0.000000e+00
 7.801664e-03 -1.617827e-01 0.000000e+00
 4.790293e-03 -1.664914e-01 0.000000e+00
 5.501733e-03 -1.630460e-01 0.000000e+00
 1.643451e-01 -1.313831e-02 0.000000e+00
 1.678868e-01 -1.175418e-02 0.000000e+00
 1.378987e-01 -1.033156e-02 0.000000e+00
 1.479076e-01 -1.901312e-02 0.000000e+00
 1.558324e-01 -1.325689e-02 0.000000e+00
 3.510550e-02 -2.114139e-01 0.000000e+00
 5.344779e-02 -2.150501e-01 0.000000e+00
 1.657300e-01 -1.073077e-01 0.000000e+00
 1.113945e-01 -2.869100e-04 0.000000e+00
 0.000000e+00 0.000000e+00 0.000000e+00
 1.645839e-01 -1.228217e-02 0.000000e+00
 4.268239e-02 -1.050441e-01 0.000000e+00
 3.536451e-02 -1.150895e-01 0.000000e+00
 4.388136e-02 -1.137171e-01 0.000000e+00
 1.517200e-02 -7.771780e-02 0.000000e+00
 2.113830e-02 -9.305439e-02 0.000000e+00
 2.589163e-02 -8.205026e-02 0.000000e+00
 6.008450e-03 -1.859716e-01 0.000000e+00
 3.543973e-03 -1.853370e-01 0.000000e+00
 3.848571e-03 -1.841231e-01 0.000000e+00
 9.398902e-02 -1.094313e-01 0.000000e+00
 8.940680e-02 -1.267711e-01 0.000000e+00
 1.091141e-01 -1.212582e-01 0.000000e+00
 1.873080e-02 -1.508055e-01 0.000000e+00
 1.886724e-02 -1.471321e-01 0.000000e+00
 2.674784e-03 -6.541325e-02 0.000000e+00
 2.279400e-03 -7.128215e-02 0.000000e+00
 0.000000e+00 0.000000e+00 0.000000e+00
 2.480852e-02 -1.425766e-01 0.000000e+00
 3.190876e-02 -1.404088e-01 0.000000e+00
 7.202005e-02 -1.283056e-01 0.000000e+00
 5.753941e-02 -1.189732e-01 0.000000e+00
 2.696551e-02 -1.105239e-01 0.000000e+00
 3.322670e-02 -1.011828e-01 0.000000e+00
 2.488852e-02 -1.035699e-01 0.000000e+00
 1.712747e-01 -1.491553e-03 0.000000e+00
 1.651065e-01 -8.370989e-04 0.000000e+00
 1.878607e-01 -1.401051e-02 0.000000e+00
 1.835260e-01 -7.295703e-03 0.000000e+00
 1.782090e-01 -1.152169e-02 0.000000e+00
 1.342161e-01 -6.208978e-02 0.000000e+00
 1.356727e-01 -4.922388e-02 0.000000e+00
 1.730214e-01 -3.135355e-02 0.000000e+00
 1.925367e-01 -3.008369e-02 0.000000e+00
 1.057011e-01 -4.998338e-02 0.000000e+00
 1.344859e-01 -1.205586e-01 0.000000e+00
 1.337879e-01 -1.510367e-01 0.000000e+00
 0.000000e+00 0.000000e+00 0.000000e+00
 2.745220e-02 -1.694996e-01 0.000000e+00
 2.447920e-02 -1.823328e-01 0.000000e+00
 1.805046e-02 -1.867476e-01 0.000000e+00
 2.194174e-02 -1.945011e-01 0.000000e+00
 1.138990e-02 -1.620454e-01 0.000000e+00
 1.185671e-02 -1.685483e-01 0.000000e+00
 1.773368e-01 -6.268795e-04 0.000000e+00
 1.733414e-01 -3.382626e-03 0.000000e+00
 1.795610e-01 -2.309149e-03 0.000000e+00
 1.649290e-01 -9.090563e-03 0.000000e+00
 1.731017e-01 -9.186231e-03 0.000000e+00
 1.685810e-01 -6.641390e-03 0.000000e+00
 1.755891e-01 1.242919e-04 0.000000e+00
 1.752191e-01 1.426200e-03 0.000000e+00
 1.690957e-01 -3.306641e-03 0.000000e+00
 1.803305e-01 -3.805136e-03 0.000000e+00
 1.714356e-01 1.534764e-03 0.000000e+00
 6.055126e-02 -5.103865e-02 0.000000e+00
 7.465668e-02 -2.299320e-01 0.000000e+00
 7.487605e-02 -2.003836e-01 0.000000e+00
 6.319881e-03 -1.870442e-01 0.000000e+00
 9.938745e-03 -1.945395e-01 0.000000e+00
 1.027095e-02 -1.924470e-01 0.000000e+00
 2.496782e-03 -1.587337e-01 0.000000e+00
 2.325839e-02 -2.064442e-01 0.000000e+00
 1.441081e-02 -2.009149e-01 0.000000e+00
 1.034687e-01 -2.159376e-02 0.000000e+00
 1.197033e-01 -1.398569e-02 0.000000e+00
 1.125076e-01 -2.256442e-02 0.000000e+00
 4.681225e-03 -1.224149e-01 0.000000e+00
 8.396774e-03 -1.451472e-01 0.000000e+00
 4.020230e-03 -1.501324e-01 0.000000e+00
 4.767248e-03 -1.612553e-01 0.000000e+00
 7.070395e-03 -1.610476e-01 0.000000e+00
 1.410481e-02 -1.596617e-01 0.000000e+00
 1.058032e-02 -1.600226e-01 0.000000e+00
 1.067074e-02 -1.601592e-01 0.000000e+00
 1.670702e-01 -5.885171e-03 0.000000e+00
 1.719037e-01 -3.667793e-03 0.000000e+00
 1.754228e-01 -1.021417e-03 0.000000e+00
 1.736404e-01 -2.119963e-03 0.000000e+00
 1.754081e-01 -1.976897e-03 0.000000e+00
 3.411958e-03 -1.816193e-01 0.000000e+00
 3.323869e-03 -1.731690e-01 0.000000e+00
 1.576842e-03 -1.630278e-01 0.000000e+00
 3.118465e-03 -1.704469e-01 0.000000e+00
 6.283733e-02 -1.648190e-01 0.000000e+00
 8.150550e-02 -1.692427e-01 0.000000e+00
 1.086502e-01 -1.732882e-01 0.000000e+00
 8.211168e-02 -1.452833e-01 0.000000e+00
 1.945043e-01 -1.818101e-02 0.000000e+00
 1.463289e-01 -4.299467e-02 0.000000e+00
 1.786177e-01 1.214403e-03 0.000000e+00
 1.594256e-01 -1.922427e-02 0.000000e+00
 1.038172e-01 -8.164933e-02 0.000000e+00
 9.021111e-02 -9.343383e-02 0.000000e+00