<?xml version="1.0"?>
<VTKFile type="UnstructuredGrid"  version="0.1"  >
<UnstructuredGrid>
<Piece  NumberOfPoints="505" NumberOfCells="928">
<Points>
<DataArray  type="Float32"  NumberOfComponents="3"  format="ascii">
0 0 0
1 0 0
0 1 0
1 0.5 0
0.5 0.5 0
0.5 1 0
0.1 0 0
0.2 0 0
0.3 0 0
0.4 0 0
0.5 0 0
0.6 0 0
0.7 0 0
0.8 0 0
0.9 0 0
0 0.9 0
0 0.8 0
0 0.7 0
0 0.6 0
0 0.5 0
0 0.4 0
0 0.3 0
0 0.2 0
0 0.1 0
0.9 0.5 0
0.8 0.5 0
0.7 0.5 0
0.6 0.5 0
0.5 0.6 0
0.5 0.7 0
0.5 0.8 0
0.5 0.9 0
0.1 1 0
0.2 1 0
0.3 1 0
0.4 1 0
1 0.1 0
1 0.2 0
1 0.3 0
1 0.4 0
0.300178 0.296564 0
0.247566 0.664879 0
0.639694 0.259804 0
0.06564 0.06472 0
0.04439 0.954144 0
0.932418 0.064715 0
0.951013 0.456419 0
0.437622 0.939659 0
0.195334 0.464441 0
0.483382 0.329596 0
0.834786 0.236295 0
0.307228 0.81139 0
0.178229 0.173372 0
0.366998 0.134199 0
0.547485 0.14214 0
0.124832 0.74927 0
0.160163 0.896658 0
0.342556 0.535243 0
0.147651 0.342018 0
0.729803 0.127878 0
0.725981 0.357775 0
0.121369 0.600441 0
0.372954 0.70814 0
0.908503 0.151525 0
0.89851 0.333305 0
0.556275 0.400898 0
0.259184 0.092178 0
0.46329 0.194362 0
0.423773 0.869712 0
0.22823 0.818162 0
0.081292 0.144905 0
0.082979 0.831935 0
0.549999 0.065419 0
0.371537 0.407588 0
0.642628 0.097865 0
0.459835 0.086595 0
0.108565 0.418567 0
0.273082 0.902112 0
0.256598 0.556659 0
0.11951 0.509541 0
0.234147 0.370527 0
0.097453 0.253261 0
0.638438 0.342389 0
0.554656 0.224779 0
0.373432 0.237603 0
0.339663 0.62579 0
0.27079 0.747786 0
0.733958 0.266592 0
0.928527 0.244458 0
0.853116 0.071497 0
0.818426 0.404817 0
0.280194 0.200604 0
0.417859 0.565185 0
0.147241 0.079056 0
0.389149 0.789957 0
0.42808 0.654642 0
0.343469 0.059202 0
0.086765 0.684153 0
0.162043 0.675011 0
0.809252 0.14201 0
0.364337 0.928607 0
0.077532 0.916553 0
0.159064 0.807906 0
0.302124 0.454032 0
0.205909 0.272176 0
0.449664 0.407415 0
0.66041 0.423241 0
0.562201 0.303789 0
0.802658 0.320211 0
0.614551 0.182931 0
0.390944 0.331035 0
0.687136 0.18846 0
0.070577 0.342498 0
0.741087 0.437361 0
0.176989 0.547528 0
0.710251 0.07409 0
0.192845 0.608574 0
0.171114 0.398277 0
0.058959 0.753084 0
0.904 0.425508 0
0.438039 0.730373 0
0.057223 0.475897 0
0.058502 0.552106 0
0.330493 0.750997 0
0.312295 0.699131 0
0.684882 0.307111 0
0.053312 0.627311 0
0.198798 0.743695 0
0.392326 0.069953 0
0.351519 0.860283 0
0.397134 0.477694 0
0.319385 0.371198 0
0.767351 0.069505 0
0.441954 0.271171 0
0.759504 0.192785 0
0.855661 0.457701 0
0.500847 0.264652 0
0.916209 0.0323575 0
0.966209 0.0323575 0
0.95 0 0
0.578137 0.450449 0
0.528137 0.450449 0
0.55 0.5 0
0.03282 0.08236 0
0.03282 0.03236 0
0 0.05 0
0.502969 0.404157 0
0.474832 0.453708 0
0.468811 0.91983 0
0.468811 0.96983 0
0.5 0.95 0
0.072195 0.977072 0
0.022195 0.977072 0
0.05 1 0
0.022195 0.927072 0
0 0.95 0
0.060961 0.935348 0
0.038766 0.908276 0
0.106441 0.071888 0
0.123621 0.039528 0
0.08282 0.03236 0
0.0414895 0.815967 0
0.0414895 0.865968 0
0 0.85 0
0.173621 0.039528 0
0.15 0 0
0.05 0 0
0.301327 0.07569 0
0.321735 0.029601 0
0.279592 0.046089 0
0.070969 0.792509 0
0.0294795 0.776542 0
0.0294795 0.726542 0
0 0.75 0
0.114267 0.111981 0
0.073466 0.104813 0
0.229592 0.046089 0
0.25 0 0
0.371735 0.029601 0
0.35 0 0
0.479917 0.0432975 0
0.429918 0.0432975 0
0.45 0 0
0.461562 0.140479 0
0.413416 0.110397 0
0.415144 0.16428 0
0.574999 0.0327095 0
0.525 0.0327095 0
0.55 0 0
0.596313 0.081642 0
0.621314 0.0489325 0
0.927507 0.440964 0
0.902 0.462754 0
0.925507 0.47821 0
0.0700385 0.655732 0
0.026656 0.663655 0
0.0433825 0.692076 0
0.026656 0.613655 0
0 0.65 0
0.276766 0.370862 0
0.309781 0.333881 0
0.267162 0.333545 0
0.458929 0.582593 0
0.458929 0.532593 0
0.5 0.55 0
0.422969 0.609913 0
0.46404 0.627321 0
0.43306 0.692508 0
0.46902 0.715186 0
0.46404 0.677321 0
0.46902 0.765186 0
0.5 0.75 0
0.180082 0.948329 0
0.130082 0.948329 0
0.15 1 0
0.87983 0.441605 0
0.87783 0.478851 0
0.975507 0.42821 0
0.975507 0.47821 0
1 0.45 0
0.676439 0.0859775 0
0.705125 0.037045 0
0.671314 0.0489325 0
0.779756 0.421089 0
0.770544 0.46868 0
0.809213 0.452408 0
0.738801 0.0717975 0
0.733675 0.0347525 0
0.95 0.5 0
0.720544 0.46868 0
0.75 0.5 0
0.029251 0.526053 0
0.029251 0.576053 0
0 0.55 0
0.089006 0.530824 0
0.0899355 0.576273 0
0.12044 0.554991 0
0.461886 0.884856 0
0.461886 0.834856 0
0.5 0.85 0
0.089571 0.380533 0
0.0352885 0.371249 0
0.0542825 0.409284 0
0.918515 0.197991 0
0.964263 0.222229 0
0.954252 0.175762 0
0.630205 0.46162 0
0.680205 0.46162 0
0.65 0.5 0
0.0352885 0.321249 0
0 0.35 0
0.0487265 0.226631 0
0.0487265 0.276631 0
0 0.25 0
0.286541 0.951056 0
0.236541 0.951056 0
0.25 1 0
0.382169 0.964303 0
0.332168 0.964303 0
0.35 1 0
0.966209 0.0823575 0
1 0.05 0
0.876558 0.0357485 0
0.826558 0.0357485 0
0.85 0 0
0.710547 0.227526 0
0.663415 0.224132 0
0.686826 0.263198 0
0.964263 0.272229 0
1 0.25 0
0.40098 0.934133 0
0.418811 0.96983 0
0.45 1 0
0.326813 0.219104 0
0.290186 0.248584 0
0.336805 0.267084 0
0.243052 0.23639 0
0.253043 0.28437 0
0.224721 0.582616 0
0.220205 0.636726 0
0.252082 0.610769 0
0.92046 0.10812 0
0.954252 0.125762 0
0.66166 0.32475 0
0.662288 0.283458 0
0.639066 0.301096 0
0.949255 0.366653 0
0.949255 0.316653 0
1 0.35 0
0.291542 0.723459 0
0.27993 0.682005 0
0.259178 0.706333 0
0.394055 0.89916 0
0.430698 0.904686 0
0.531524 0.28422 0
0.492115 0.297124 0
0.522791 0.316692 0
0.040646 0.122453 0
0.040646 0.172453 0
0 0.15 0
1 0.15 0
0.151681 0.262718 0
0.192069 0.222774 0
0.137841 0.213317 0
0.558428 0.264284 0
0.600947 0.281797 0
0.597175 0.242291 0
0.508973 0.20957 0
0.551071 0.183459 0
0.505387 0.168251 0
0.118847 0.906605 0
0.088766 0.958276 0
0.3123 0.881198 0
0.329373 0.835836 0
0.290155 0.856751 0
0.18042 0.709353 0
0.223182 0.704287 0
0.204805 0.669945 0
0.114037 0.464054 0
0.157422 0.486991 0
0.15195 0.441504 0
0.279361 0.505346 0
0.248729 0.459236 0
0.225966 0.51055 0
0.423399 0.442555 0
0.448567 0.488847 0
0.892767 0.068106 0
0.65 0 0
0.901255 0.379406 0
0.952 0.412754 0
0.858877 0.146767 0
0.822019 0.189153 0
0.871644 0.19391 0
0.14825 0.528535 0
0.186162 0.505985 0
0.178931 0.775801 0
0.161815 0.746482 0
0.141948 0.778588 0
0.29813 0.591225 0
0.34111 0.580516 0
0.299577 0.545951 0
0.913519 0.288882 0
0.881657 0.240376 0
0.866648 0.2848 0
0.664882 0.143162 0
0.708469 0.158169 0
0.686215 0.112871 0
0.768308 0.293401 0
0.818722 0.278253 0
0.784372 0.251443 0
0.407693 0.254387 0
0.452622 0.232766 0
0.418361 0.215983 0
0.559238 0.352343 0
0.519829 0.365247 0
0.269689 0.146391 0
0.323596 0.167402 0
0.313091 0.113188 0
0.367897 0.0645775 0
0.396163 0.0349765 0
0.220028 0.321352 0
0.17678 0.307097 0
0.190899 0.356272 0
0.584604 0.203855 0
0.581018 0.162535 0
0.250656 0.860137 0
0.267729 0.814776 0
0.359821 0.770477 0
0.31886 0.781193 0
0.348189 0.800674 0
0.124404 0.679582 0
0.141706 0.637726 0
0.104067 0.642297 0
0.216622 0.899385 0
0.203213 0.085617 0
0.162735 0.126214 0
0.218707 0.132775 0
0.0893725 0.199083 0
0.129761 0.159139 0
0.121022 0.819921 0
0.103905 0.790602 0
0.193647 0.813034 0
0.159614 0.852282 0
0.194196 0.85741 0
0.650843 0.185696 0
0.628589 0.140398 0
0.504917 0.076007 0
0.50366 0.114367 0
0.548742 0.103779 0
0.378761 0.595487 0
0.380208 0.550214 0
0.466523 0.368506 0
0.783675 0.0347525 0
0.75 0 0
0.595056 0.120002 0
0.20263 0.384402 0
0.183224 0.431359 0
0.214741 0.417484 0
0.084015 0.29788 0
0.109114 0.342258 0
0.122552 0.29764 0
0.370334 0.82512 0
0.387646 0.864998 0
0.406461 0.829835 0
0.355164 0.351116 0
0.345461 0.389393 0
0.38124 0.369312 0
0.177444 0.641792 0
0.157107 0.604507 0
0.0286115 0.437949 0
0.0286115 0.487949 0
0 0.45 0
0.184917 0.578051 0
0.216794 0.552094 0
0.310754 0.412615 0
0.268135 0.41228 0
0.13984 0.408422 0
0.159382 0.370147 0
0.128108 0.380293 0
0.784378 0.167398 0
0.797145 0.21454 0
0.649424 0.382815 0
0.693196 0.390508 0
0.682209 0.350082 0
0.471401 0.267911 0
0.482069 0.229507 0
0.600319 0.323089 0
0.597356 0.371644 0
0.370215 0.185901 0
0.420304 0.369225 0
0.410601 0.407502 0
0.5 0.65 0
0.293615 0.645334 0
0.325979 0.66246 0
0.342624 0.703635 0
0.356309 0.666965 0
0.24951 0.782974 0
0.289009 0.779588 0
0.810542 0.362514 0
0.76432 0.338993 0
0.772204 0.381296 0
0.70942 0.286852 0
0.705431 0.332443 0
0.729969 0.312184 0
0.831184 0.106754 0
0.88081 0.111511 0
0.700748 0.430301 0
0.733534 0.397568 0
0.850584 0.326758 0
0.229212 0.186988 0
0.407496 0.52144 0
0.369845 0.506468 0
0.413594 0.760165 0
0.405497 0.719256 0
0.381051 0.749049 0
0.444574 0.794979 0
0.383872 0.640216 0
0.400517 0.681391 0
0.355233 0.0967005 0
0.42608 0.078274 0
0.379662 0.102076 0
0.055907 0.589708 0
0.0873405 0.613876 0
0.072862 0.718619 0
0.0918955 0.751177 0
0.105798 0.716711 0
0.234794 0.74574 0
0.213514 0.780928 0
0.143437 0.712141 0
0.72332 0.190623 0
0.744653 0.160332 0
0.788301 0.105758 0
0.748577 0.0986915 0
0.769527 0.134944 0
0.357928 0.894445 0
0.318709 0.915359 0
0.0802555 0.874244 0
0.121571 0.864297 0
0.32234 0.494638 0
0.349629 0.465863 0
0.384335 0.442641 0
0.336831 0.43081 0
0.608343 0.412069 0
0.527752 0.244716 0
0.858468 0.369061 0
0.627123 0.221367 0
0.382188 0.284319 0
0.345561 0.3138 0
0.437163 0.330315 0
0.746731 0.229689 0
0.149179 0.573985 0
0.720027 0.100984 0
0.810234 0.070501 0
0.861213 0.415162 0
0.827831 0.478851 0
0.85 0.5 0
0.082894 0.447232 0
0.0883665 0.492719 0
0.0578625 0.514002 0
0.300642 0.749391 0
0.351723 0.729569 0
0.321394 0.725064 0
0.416449 0.301103 0
0.462668 0.300384 0
0.837044 0.431259 0
</DataArray>
</Points>
<Cells>
<DataArray  type="UInt32"  Name="connectivity"  format="ascii">
1 138 139 
14 137 139 
45 137 138 
137 138 139 
4 141 142 
27 140 142 
65 140 141 
140 141 142 
0 144 145 
23 143 145 
43 143 144 
143 144 145 
4 141 147 
65 141 146 
105 146 147 
141 146 147 
5 149 150 
31 148 150 
47 148 149 
148 149 150 
2 152 153 
32 151 153 
44 151 152 
151 152 153 
2 152 155 
15 154 155 
44 152 154 
152 154 155 
15 154 157 
44 154 156 
101 156 157 
154 156 157 
6 159 160 
43 158 160 
93 158 159 
158 159 160 
15 162 163 
16 161 163 
71 161 162 
161 162 163 
6 159 165 
7 164 165 
93 159 164 
159 164 165 
[...]
<PointData  Vectors="u"> 
<DataArray  type="Float32"  Name="u"  NumberOfComponents="3" format="ascii">
 0.000000e+00 0.000000e+00 0.000000e+00
 0.000000e+00 0.000000e+00 0.000000e+00
 0.000000e+00 0.000000e+00 0.000000e+00
 0.000000e+00 0.000000e+00 0.000000e+00
 0.000000e+00 0.000000e+00 0.000000e+00
 0.000000e+00 0.000000e+00 0.000000e+00
 0.000000e+00 0.000000e+00 0.000000e+00
 0.000000e+00 0.000000e+00 0.000000e+00
 0.000000e+00 0.000000e+00 0.000000e+00
 0.000000e+00 0.000000e+00 0.000000e+00
 0.000000e+00 0.000000e+00 0.000000e+00
 0.000000e+00 0.000000e+00 0.000000e+00
 0.000000e+00 0.000000e+00 0.000000e+00
 0.000000e+00 0.000000e+00 0.000000e+00
 0.000000e+00 0.000000e+00 0.000000e+00
 0.000000e+00 0.000000e+00 0.000000e+00
 0.000000e+00 0.000000e+00 0.000000e+00
 0.000000e+00 0.000000e+00 0.000000e+00
 0.000000e+00 0.000000e+00 0.000000e+00
 0.000000e+00 0.000000e+00 0.000000e+00
 0.000000e+00 0.000000e+00 0.000000e+00
 0.000000e+00 0.000000e+00 0.000000e+00
 0.000000e+00 0.000000e+00 0.000000e+00
 0.000000e+00 0.000000e+00 0.000000e+00
 0.000000e+00 0.000000e+00 0.000000e+00
 0.000000e+00 0.000000e+00 0.000000e+00
 0.000000e+00 0.000000e+00 0.000000e+00
 0.000000e+00 0.000000e+00 0.000000e+00
 0.000000e+00 0.000000e+00 0.000000e+00
 0.000000e+00 0.000000e+00 0.000000e+00
 0.000000e+00 0.000000e+00 0.000000e+00
 0.000000e+00 0.000000e+00 0.000000e+00
 4.935206e-05 -2.031632e-02 0.000000e+00
 9.052851e-05 -2.073531e-02 0.000000e+00
 8.790398e-05 -2.108954e-02 0.000000e+00
 5.067947e-05 -2.121713e-02 0.000000e+00
 2.032845e-02 -4.452742e-05 0.000000e+00
 2.072871e-02 -8.440245e-05 0.000000e+00
 2.108508e-02 -9.019774e-05 0.000000e+00
 2.121124e-02 -5.749539e-05 0.000000e+00
 1.025099e-02 -1.008391e-02 0.000000e+00
 2.501610e-03 -2.039658e-02 0.000000e+00
 2.042166e-02 -3.003406e-03 0.000000e+00
 1.578200e-03 -1.553917e-03 0.000000e+00
 3.234649e-05 -1.779269e-02 0.000000e+00
 1.935354e-02 -7.108882e-05 0.000000e+00
 1.866342e-02 -4.256798e-05 0.000000e+00
 7.639016e-05 -2.027320e-02 0.000000e+00
 4.885348e-03 -1.582921e-02 0.000000e+00
 1.951781e-02 -9.152362e-03 0.000000e+00
 2.078498e-02 -7.180803e-04 0.000000e+00
 8.691099e-04 -2.125711e-02 0.000000e+00
 5.606644e-03 -5.430251e-03 0.000000e+00
 1.215542e-02 -3.742724e-03 0.000000e+00
 1.724761e-02 -2.560583e-03 0.000000e+00
 8.000915e-04 -1.975462e-02 0.000000e+00
 3.150671e-04 -2.051964e-02 0.000000e+00
 7.238564e-03 -2.172415e-02 0.000000e+00
 4.250508e-03 -1.132847e-02 0.000000e+00
 1.963836e-02 -9.296215e-04 0.000000e+00
 2.204292e-02 -1.485545e-03 0.000000e+00
 1.715623e-03 -1.805259e-02 0.000000e+00
 1.625025e-03 -2.237065e-02 0.000000e+00
 2.050208e-02 -2.648480e-04 0.000000e+00
 2.126101e-02 -3.556105e-04 0.000000e+00
 2.513816e-02 -6.407803e-03 0.000000e+00
 8.242461e-03 -2.545293e-03 0.000000e+00
 1.569804e-02 -4.794143e-03 0.000000e+00
 2.225089e-04 -2.097049e-02 0.000000e+00
 8.096471e-04 -2.071201e-02 0.000000e+00
 2.204301e-03 -4.345713e-03 0.000000e+00
 2.762163e-04 -1.963185e-02 0.000000e+00
 1.604883e-02 -9.718496e-04 0.000000e+00
 1.366865e-02 -1.621962e-02 0.000000e+00
 1.829055e-02 -1.082819e-03 0.000000e+00
 1.450773e-02 -1.835979e-03 0.000000e+00
 2.597499e-03 -1.363100e-02 0.000000e+00
 3.788901e-04 -2.099429e-02 0.000000e+00
 4.779178e-03 -1.927902e-02 0.000000e+00
 2.380629e-03 -1.619186e-02 0.000000e+00
 7.243067e-03 -1.293184e-02 0.000000e+00
 2.709466e-03 -8.057371e-03 0.000000e+00
 2.233404e-02 -3.262402e-03 0.000000e+00
 1.857274e-02 -4.153400e-03 0.000000e+00
 1.302598e-02 -7.307692e-03 0.000000e+00
 3.629709e-03 -2.225999e-02 0.000000e+00
 1.461328e-03 -2.096197e-02 0.000000e+00
 2.090162e-02 -1.597104e-03 0.000000e+00
 2.087794e-02 -2.736045e-04 0.000000e+00
 1.942342e-02 -1.995514e-04 0.000000e+00
 2.161317e-02 -4.794190e-04 0.000000e+00
 9.321413e-03 -6.314033e-03 0.000000e+00
 5.373104e-03 -2.587471e-02 0.000000e+00
 4.417377e-03 -2.130671e-03 0.000000e+00
 7.038012e-04 -2.181519e-02 0.000000e+00
 1.610116e-03 -2.325000e-02 0.000000e+00
 1.044458e-02 -1.347102e-03 0.000000e+00
 7.654737e-04 -1.877195e-02 0.000000e+00
 1.624122e-03 -1.942592e-02 0.000000e+00
 2.019494e-02 -6.050394e-04 0.000000e+00
 2.042864e-04 -2.131117e-02 0.000000e+00
 1.183205e-04 -1.990388e-02 0.000000e+00
 6.789629e-04 -2.027590e-02 0.000000e+00
 8.733485e-03 -1.735004e-02 0.000000e+00
 6.541329e-03 -9.021238e-03 0.000000e+00
 2.063812e-02 -1.563042e-02 0.000000e+00
 2.323013e-02 -1.614558e-03 0.000000e+00
 2.075607e-02 -5.440362e-03 0.000000e+00
 2.136771e-02 -9.090091e-04 0.000000e+00
 1.893336e-02 -2.517999e-03 0.000000e+00
 1.475898e-02 -1.138188e-02 0.000000e+00
 1.979656e-02 -1.748714e-03 0.000000e+00
 1.682451e-03 -1.074858e-02 0.000000e+00
 2.137762e-02 -5.783758e-04 0.000000e+00
 3.311246e-03 -1.766741e-02 0.000000e+00
 1.876383e-02 -5.423873e-04 0.000000e+00
 2.750905e-03 -1.898291e-02 0.000000e+00
 4.736307e-03 -1.344175e-02 0.000000e+00
 3.144526e-04 -1.832611e-02 0.000000e+00
 2.096652e-02 -1.535657e-04 0.000000e+00
 6.316692e-04 -2.146169e-02 0.000000e+00
 1.015707e-03 -1.403620e-02 0.000000e+00
 8.311210e-04 -1.576748e-02 0.000000e+00
 1.344956e-03 -2.161159e-02 0.000000e+00
 2.100293e-03 -2.151275e-02 0.000000e+00
 2.144904e-02 -2.314555e-03 0.000000e+00
 5.351131e-04 -1.668267e-02 0.000000e+00
 1.287951e-03 -2.025885e-02 0.000000e+00
 1.236356e-02 -1.568821e-03 0.000000e+00
 4.868149e-04 -2.140648e-02 0.000000e+00
 1.316175e-02 -2.260643e-02 0.000000e+00
 1.092715e-02 -1.361365e-02 0.000000e+00
 1.891263e-02 -3.566489e-04 0.000000e+00
 1.617500e-02 -7.813861e-03 0.000000e+00
 2.029224e-02 -1.125252e-03 0.000000e+00
 1.872764e-02 -1.131100e-04 0.000000e+00
 1.811986e-02 -6.281915e-03 0.000000e+00
 1.539213e-02 -3.619592e-05 0.000000e+00
 1.549756e-02 -1.449312e-05 0.000000e+00
 0.000000e+00 0.000000e+00 0.000000e+00
 2.463575e-02 -3.054346e-03 0.000000e+00
 2.727546e-02 -9.957588e-03 0.000000e+00
 0.000000e+00 0.000000e+00 0.000000e+00
 6.792911e-04 -1.663318e-03 0.000000e+00
 5.485725e-04 -5.432917e-04 0.000000e+00
 0.000000e+00 0.000000e+00 0.000000e+00
 2.453128e-02 -1.178199e-02 0.000000e+00
 2.474360e-02 -1.965258e-02 0.000000e+00
 3.786498e-05 -1.605381e-02 0.000000e+00
 2.320735e-05 -1.604680e-02 0.000000e+00
 0.000000e+00 0.000000e+00 0.000000e+00
 3.743437e-05 -1.967191e-02 0.000000e+00
 9.493114e-06 -1.299222e-02 0.000000e+00
 1.654239e-05 -1.842237e-02 0.000000e+00
 3.235349e-05 -1.286878e-02 0.000000e+00
 0.000000e+00 0.000000e+00 0.000000e+00
 6.895984e-05 -1.920600e-02 0.000000e+00
 7.227903e-05 -1.712212e-02 0.000000e+00
 2.909922e-03 -1.873241e-03 0.000000e+00
 3.020012e-03 -8.352602e-04 0.000000e+00
 1.668510e-03 -6.663828e-04 0.000000e+00
 1.138415e-04 -1.647202e-02 0.000000e+00
 9.029008e-05 -1.666006e-02 0.000000e+00
 0.000000e+00 0.000000e+00 0.000000e+00
 4.476335e-03 -8.822608e-04 0.000000e+00
 0.000000e+00 0.000000e+00 0.000000e+00
 0.000000e+00 0.000000e+00 0.000000e+00
 9.603276e-03 -1.898759e-03 0.000000e+00
 7.704967e-03 -5.902714e-04 0.000000e+00
 7.668968e-03 -9.832926e-04 0.000000e+00
 3.062448e-04 -1.911444e-02 0.000000e+00
 1.050420e-04 -1.442682e-02 0.000000e+00
 1.528208e-04 -1.410896e-02 0.000000e+00
 0.000000e+00 0.000000e+00 0.000000e+00
 3.363812e-03 -3.284358e-03 0.000000e+00
 1.922563e-03 -2.864514e-03 0.000000e+00
 6.292617e-03 -1.039942e-03 0.000000e+00
 0.000000e+00 0.000000e+00 0.000000e+00
 8.650484e-03 -5.127103e-04 0.000000e+00
 0.000000e+00 0.000000e+00 0.000000e+00
 1.269984e-02 -6.905456e-04 0.000000e+00
 1.158141e-02 -7.458056e-04 0.000000e+00
 0.000000e+00 0.000000e+00 0.000000e+00
 1.511402e-02 -3.298901e-03 0.000000e+00
 1.357741e-02 -2.803438e-03 0.000000e+00
 1.393313e-02 -4.362732e-03 0.000000e+00
 1.326863e-02 -3.608330e-04 0.000000e+00
 1.245248e-02 -4.466622e-04 0.000000e+00
 0.000000e+00 0.000000e+00 0.000000e+00
 1.731261e-02 -1.067767e-03 0.000000e+00
 1.566194e-02 -4.696044e-04 0.000000e+00
 2.016431e-02 -8.121811e-05 0.000000e+00
 1.787272e-02 -6.168329e-05 0.000000e+00
 1.350500e-02 -2.593174e-05 0.000000e+00
 6.672704e-04 -1.793376e-02 0.000000e+00
 1.897600e-04 -1.299388e-02 0.000000e+00
 3.053194e-04 -1.655787e-02 0.000000e+00
 2.289123e-04 -1.248323e-02 0.000000e+00
 0.000000e+00 0.000000e+00 0.000000e+00
 9.026118e-03 -1.332026e-02 0.000000e+00
 1.065840e-02 -1.182764e-02 0.000000e+00
 8.745285e-03 -1.155041e-02 0.000000e+00
 2.366372e-03 -2.350674e-02 0.000000e+00
 8.674621e-03 -2.697577e-02 0.000000e+00
 0.000000e+00 0.000000e+00 0.000000e+00
 2.898464e-03 -2.460609e-02 0.000000e+00
 9.471295e-04 -2.020217e-02 0.000000e+00
 9.824462e-04 -2.227113e-02 0.000000e+00
 3.045545e-04 -1.716131e-02 0.000000e+00
 5.201285e-04 -1.880094e-02 0.000000e+00
 2.210940e-04 -1.680164e-02 0.000000e+00
 0.000000e+00 0.000000e+00 0.000000e+00
 1.706633e-04 -2.064969e-02 0.000000e+00
 1.287578e-04 -2.048151e-02 0.000000e+00
 7.266896e-05 -2.057207e-02 0.000000e+00
 2.025153e-02 -1.413781e-04 0.000000e+00
 1.338626e-02 -3.847639e-05 0.000000e+00
 2.064385e-02 -4.667473e-05 0.000000e+00
 1.356503e-02 -1.431782e-05 0.000000e+00
 1.934281e-02 -2.414552e-05 0.000000e+00
 1.859688e-02 -7.539572e-04 0.000000e+00
 1.601639e-02 -2.736081e-04 0.000000e+00
 1.610421e-02 -3.897046e-04 0.000000e+00
 2.160551e-02 -5.432481e-04 0.000000e+00
 1.677382e-02 -1.922689e-04 0.000000e+00
 1.964231e-02 -2.225439e-04 0.000000e+00
 1.883759e-02 -4.500085e-04 0.000000e+00
 1.502365e-02 -1.887869e-04 0.000000e+00
 0.000000e+00 0.000000e+00 0.000000e+00
 1.720650e-02 -2.845205e-04 0.000000e+00
 0.000000e+00 0.000000e+00 0.000000e+00
 3.534110e-04 -1.181107e-02 0.000000e+00
 2.968967e-04 -1.247960e-02 0.000000e+00
 0.000000e+00 0.000000e+00 0.000000e+00
 1.538388e-03 -1.634574e-02 0.000000e+00
 1.325305e-03 -1.723571e-02 0.000000e+00
 2.043869e-03 -1.719720e-02 0.000000e+00
 6.834573e-05 -1.733809e-02 0.000000e+00
 1.324795e-04 -1.769432e-02 0.000000e+00
 0.000000e+00 0.000000e+00 0.000000e+00
 2.145652e-03 -1.220992e-02 0.000000e+00
 7.111527e-04 -9.467341e-03 0.000000e+00
 1.126155e-03 -1.217892e-02 0.000000e+00
 2.069440e-02 -2.877083e-04 0.000000e+00
 2.080358e-02 -1.452464e-04 0.000000e+00
 2.063518e-02 -1.460222e-04 0.000000e+00
 2.068936e-02 -1.005764e-03 0.000000e+00
 1.917315e-02 -5.396598e-04 0.000000e+00
 0.000000e+00 0.000000e+00 0.000000e+00
 7.378532e-04 -8.249950e-03 0.000000e+00
 0.000000e+00 0.000000e+00 0.000000e+00
 1.110192e-03 -6.294530e-03 0.000000e+00
 1.067951e-03 -7.710341e-03 0.000000e+00
 0.000000e+00 0.000000e+00 0.000000e+00
 1.819384e-04 -2.104163e-02 0.000000e+00
 1.880465e-04 -2.084916e-02 0.000000e+00
 9.516904e-05 -2.091592e-02 0.000000e+00
 9.618270e-05 -2.128878e-02 0.000000e+00
 1.312127e-04 -2.120039e-02 0.000000e+00
 7.296753e-05 -2.124211e-02 0.000000e+00
 1.998280e-02 -5.497701e-05 0.000000e+00
 1.844711e-02 -1.861289e-05 0.000000e+00
 1.587946e-02 -6.733531e-05 0.000000e+00
 1.576916e-02 -9.860032e-05 0.000000e+00
 0.000000e+00 0.000000e+00 0.000000e+00
 2.037800e-02 -1.762827e-03 0.000000e+00
 2.005109e-02 -2.306633e-03 0.000000e+00
 2.071532e-02 -2.213787e-03 0.000000e+00
 2.098720e-02 -1.523941e-04 0.000000e+00
 2.090511e-02 -9.143172e-05 0.000000e+00
 1.373838e-04 -2.123745e-02 0.000000e+00
 5.875278e-05 -2.091542e-02 0.000000e+00
 2.526589e-05 -1.935760e-02 0.000000e+00
 1.116219e-02 -6.859694e-03 0.000000e+00
 9.792506e-03 -8.175093e-03 0.000000e+00
 1.174130e-02 -8.757410e-03 0.000000e+00
 7.952684e-03 -7.708636e-03 0.000000e+00
 8.346029e-03 -9.580643e-03 0.000000e+00
 3.609365e-03 -1.909929e-02 0.000000e+00
 2.702034e-03 -1.969862e-02 0.000000e+00
 3.510135e-03 -2.005356e-02 0.000000e+00
 2.028629e-02 -1.577084e-04 0.000000e+00
 2.046500e-02 -1.098611e-04 0.000000e+00
 2.180060e-02 -2.718226e-03 0.000000e+00
 2.102242e-02 -2.673598e-03 0.000000e+00
 2.129233e-02 -3.284156e-03 0.000000e+00
 2.129695e-02 -1.478946e-04 0.000000e+00
 2.115732e-02 -1.783896e-04 0.000000e+00
 2.123642e-02 -8.053688e-05 0.000000e+00
 1.779374e-03 -2.119217e-02 0.000000e+00
 2.361998e-03 -2.102172e-02 0.000000e+00
 1.920922e-03 -2.074832e-02 0.000000e+00
 2.360499e-04 -2.135176e-02 0.000000e+00
 1.349160e-04 -2.066623e-02 0.000000e+00
 1.944902e-02 -6.015159e-03 0.000000e+00
 1.872926e-02 -7.520508e-03 0.000000e+00
 2.044648e-02 -7.138568e-03 0.000000e+00
 8.653381e-04 -3.013773e-03 0.000000e+00
 9.183467e-04 -4.473420e-03 0.000000e+00
 0.000000e+00 0.000000e+00 0.000000e+00
 2.057102e-02 -6.903536e-05 0.000000e+00
 4.636318e-03 -8.564562e-03 0.000000e+00
 6.068715e-03 -7.213208e-03 0.000000e+00
 4.168659e-03 -6.809253e-03 0.000000e+00
 1.953889e-02 -4.807885e-03 0.000000e+00
 2.057536e-02 -4.049524e-03 0.000000e+00
 1.964094e-02 -3.651800e-03 0.000000e+00
 1.726928e-02 -4.560113e-03 0.000000e+00
 1.780596e-02 -3.400374e-03 0.000000e+00
 1.656041e-02 -3.568171e-03 0.000000e+00
 2.079822e-04 -2.035449e-02 0.000000e+00
 7.946507e-05 -2.017846e-02 0.000000e+00
 4.588427e-04 -2.120256e-02 0.000000e+00
 6.648187e-04 -2.135591e-02 0.000000e+00
 6.117708e-04 -2.110416e-02 0.000000e+00
 1.481866e-03 -1.989482e-02 0.000000e+00
 1.795137e-03 -2.028899e-02 0.000000e+00
 2.067253e-03 -1.983788e-02 0.000000e+00
 2.583087e-03 -1.500263e-02 0.000000e+00
 3.497772e-03 -1.595110e-02 0.000000e+00
 3.748403e-03 -1.469799e-02 0.000000e+00
 6.604781e-03 -1.853766e-02 0.000000e+00
 6.628510e-03 -1.644921e-02 0.000000e+00
 5.100641e-03 -1.755634e-02 0.000000e+00
 1.778665e-02 -2.014994e-02 0.000000e+00
 1.733077e-02 -2.648347e-02 0.000000e+00
 1.944511e-02 -1.295489e-04 0.000000e+00
 0.000000e+00 0.000000e+00 0.000000e+00
 2.138266e-02 -2.598789e-04 0.000000e+00
 2.114391e-02 -9.858982e-05 0.000000e+00
 2.038081e-02 -4.309129e-04 0.000000e+00
 2.048189e-02 -6.943573e-04 0.000000e+00
 2.061235e-02 -4.730476e-04 0.000000e+00
 2.892557e-03 -1.693975e-02 0.000000e+00
 4.037789e-03 -1.688583e-02 0.000000e+00
 9.452179e-04 -2.025946e-02 0.000000e+00
 1.060627e-03 -1.998392e-02 0.000000e+00
 7.479350e-04 -2.004558e-02 0.000000e+00
 4.420328e-03 -2.088099e-02 0.000000e+00
 5.237379e-03 -2.223891e-02 0.000000e+00
 5.951499e-03 -2.030408e-02 0.000000e+00
 2.105604e-02 -3.312501e-04 0.000000e+00
 2.084337e-02 -4.655481e-04 0.000000e+00
 2.106292e-02 -5.535682e-04 0.000000e+00
 1.915761e-02 -1.514377e-03 0.000000e+00
 1.967398e-02 -1.306035e-03 0.000000e+00
 1.912769e-02 -1.049067e-03 0.000000e+00
 2.120166e-02 -1.236361e-03 0.000000e+00
 2.106002e-02 -8.462047e-04 0.000000e+00
 2.083636e-02 -1.100358e-03 0.000000e+00
 1.464051e-02 -7.668325e-03 0.000000e+00
 1.589740e-02 -6.287751e-03 0.000000e+00
 1.443648e-02 -6.023541e-03 0.000000e+00
 2.259287e-02 -6.199408e-03 0.000000e+00
 2.243759e-02 -8.682043e-03 0.000000e+00
 8.850850e-03 -4.422895e-03 0.000000e+00
 1.077478e-02 -4.987164e-03 0.000000e+00
 1.021809e-02 -3.234124e-03 0.000000e+00
 1.143326e-02 -1.482264e-03 0.000000e+00
 1.050319e-02 -6.584557e-04 0.000000e+00
 6.977514e-03 -1.090758e-02 0.000000e+00
 5.346112e-03 -1.025322e-02 0.000000e+00
 5.720797e-03 -1.200007e-02 0.000000e+00
 1.878500e-02 -3.252385e-03 0.000000e+00
 1.816701e-02 -2.576076e-03 0.000000e+00
 5.881235e-04 -2.087527e-02 0.000000e+00
 8.677512e-04 -2.097825e-02 0.000000e+00
 1.044697e-03 -2.178515e-02 0.000000e+00
 1.093745e-03 -2.142132e-02 0.000000e+00
 8.431838e-04 -2.157377e-02 0.000000e+00
 1.200741e-03 -1.914278e-02 0.000000e+00
 1.700773e-03 -1.881013e-02 0.000000e+00
 1.188512e-03 -1.852022e-02 0.000000e+00
 3.702745e-04 -2.074756e-02 0.000000e+00
 6.276571e-03 -2.342786e-03 0.000000e+00
 5.075131e-03 -3.734654e-03 0.000000e+00
 6.993272e-03 -3.994511e-03 0.000000e+00
 2.464029e-03 -6.158918e-03 0.000000e+00
 3.858788e-03 -4.948134e-03 0.000000e+00
 4.817360e-04 -2.012964e-02 0.000000e+00
 5.002975e-04 -1.982978e-02 0.000000e+00
 7.631262e-04 -2.047982e-02 0.000000e+00
 4.885366e-04 -2.041122e-02 0.000000e+00
 5.389109e-04 -2.060241e-02 0.000000e+00
 1.940642e-02 -2.115838e-03 0.000000e+00
 1.866940e-02 -1.814156e-03 0.000000e+00
 1.543566e-02 -1.353801e-03 0.000000e+00
 1.600428e-02 -2.338111e-03 0.000000e+00
 1.687949e-02 -1.733995e-03 0.000000e+00
 4.432539e-03 -2.381649e-02 0.000000e+00
 6.933671e-03 -2.394967e-02 0.000000e+00
 2.023397e-02 -1.181291e-02 0.000000e+00
 1.541183e-02 -1.322210e-04 0.000000e+00
 0.000000e+00 0.000000e+00 0.000000e+00
 1.791840e-02 -1.744615e-03 0.000000e+00
 5.859185e-03 -1.323785e-02 0.000000e+00
 4.834362e-03 -1.454174e-02 0.000000e+00
 6.151057e-03 -1.457671e-02 0.000000e+00
 2.161228e-03 -9.558289e-03 0.000000e+00
 2.914390e-03 -1.116143e-02 0.000000e+00
 3.560496e-03 -9.769580e-03 0.000000e+00
 6.000570e-04 -2.158613e-02 0.000000e+00
 3.683726e-04 -2.145995e-02 0.000000e+00
 4.087629e-04 -2.144339e-02 0.000000e+00
 1.281771e-02 -1.265393e-02 0.000000e+00
 1.220323e-02 -1.480539e-02 0.000000e+00
 1.452497e-02 -1.380051e-02 0.000000e+00
 2.139925e-03 -1.921578e-02 0.000000e+00
 2.264862e-03 -1.849418e-02 0.000000e+00
 5.020743e-04 -1.022955e-02 0.000000e+00
 4.026572e-04 -1.100379e-02 0.000000e+00
 0.000000e+00 0.000000e+00 0.000000e+00
 3.062010e-03 -1.837614e-02 0.000000e+00
 4.062112e-03 -1.830718e-02 0.000000e+00
 1.000198e-02 -1.548484e-02 0.000000e+00
 8.060907e-03 -1.497842e-02 0.000000e+00
 3.719689e-03 -1.354335e-02 0.000000e+00
 4.549775e-03 -1.245387e-02 0.000000e+00
 3.387203e-03 -1.251748e-02 0.000000e+00
 2.023500e-02 -8.483023e-04 0.000000e+00
 2.056809e-02 -9.404111e-04 0.000000e+00
 2.320748e-02 -2.615457e-03 0.000000e+00
 2.271084e-02 -1.642061e-03 0.000000e+00
 2.226900e-02 -2.216999e-03 0.000000e+00
 1.722178e-02 -7.055613e-03 0.000000e+00
 1.688587e-02 -5.624526e-03 0.000000e+00
 2.177475e-02 -4.406758e-03 0.000000e+00
 2.344183e-02 -4.405443e-03 0.000000e+00
 1.257760e-02 -5.447115e-03 0.000000e+00
 1.714488e-02 -1.327608e-02 0.000000e+00
 1.663946e-02 -1.635573e-02 0.000000e+00
 0.000000e+00 0.000000e+00 0.000000e+00
 3.131410e-03 -2.111190e-02 0.000000e+00
 2.702941e-03 -2.180715e-02 0.000000e+00
 1.929432e-03 -2.197691e-02 0.000000e+00
 2.460070e-03 -2.248207e-02 0.000000e+00
 1.109660e-03 -2.081459e-02 0.000000e+00
 1.145735e-03 -2.114179e-02 0.000000e+00
 2.161011e-02 -7.263220e-04 0.000000e+00
 2.163315e-02 -1.168525e-03 0.000000e+00
 2.190874e-02 -8.902309e-04 0.000000e+00
 2.115211e-02 -1.956795e-03 0.000000e+00
 2.179129e-02 -1.938937e-03 0.000000e+00
 2.145847e-02 -1.614386e-03 0.000000e+00
 2.005890e-02 -3.826842e-04 0.000000e+00
 2.024149e-02 -2.626411e-04 0.000000e+00
 2.223175e-02 -9.495697e-04 0.000000e+00
 2.226012e-02 -1.058126e-03 0.000000e+00
 2.130961e-02 -6.029145e-04 0.000000e+00
 7.445257e-03 -5.870357e-03 0.000000e+00
 9.966112e-03 -2.565427e-02 0.000000e+00
 9.678125e-03 -2.231248e-02 0.000000e+00
 7.011429e-04 -2.185567e-02 0.000000e+00
 1.127940e-03 -2.242149e-02 0.000000e+00
 1.088752e-03 -2.208945e-02 0.000000e+00
 3.201810e-04 -2.040113e-02 0.000000e+00
 2.815903e-03 -2.336496e-02 0.000000e+00
 1.718735e-03 -2.294363e-02 0.000000e+00
 1.142546e-02 -2.485107e-03 0.000000e+00
 1.337135e-02 -1.691413e-03 0.000000e+00
 1.242956e-02 -2.539472e-03 0.000000e+00
 6.823428e-04 -1.631812e-02 0.000000e+00
 1.071000e-03 -1.782944e-02 0.000000e+00
 4.979245e-04 -1.870230e-02 0.000000e+00
 5.506871e-04 -1.943233e-02 0.000000e+00
 8.166385e-04 -1.934661e-02 0.000000e+00
 1.415741e-03 -2.059813e-02 0.000000e+00
 1.045026e-03 -2.052278e-02 0.000000e+00
 1.159552e-03 -1.961028e-02 0.000000e+00
 2.008654e-02 -1.411971e-03 0.000000e+00
 1.997419e-02 -1.058241e-03 0.000000e+00
 1.983954e-02 -5.119544e-04 0.000000e+00
 1.953692e-02 -6.209089e-04 0.000000e+00
 1.995166e-02 -7.605954e-04 0.000000e+00
 3.327492e-04 -2.135196e-02 0.000000e+00
 2.944276e-04 -2.118656e-02 0.000000e+00
 1.846532e-04 -1.978207e-02 0.000000e+00
 3.331862e-04 -2.025855e-02 0.000000e+00
 8.322556e-03 -1.970628e-02 0.000000e+00
 1.073149e-02 -1.945480e-02 0.000000e+00
 1.380667e-02 -1.900218e-02 0.000000e+00
 1.116680e-02 -1.708933e-02 0.000000e+00
 2.455945e-02 -3.259266e-03 0.000000e+00
 1.835646e-02 -5.169157e-03 0.000000e+00
 2.147933e-02 -4.481796e-04 0.000000e+00
 1.962546e-02 -2.837375e-03 0.000000e+00