<?xml version="1.0"?>
<VTKFile type="UnstructuredGrid"  version="0.1"  >
<UnstructuredGrid>
<Piece  NumberOfPoints="505" NumberOfCells="928">
<Points>
<DataArray  type="Float32"  NumberOfComponents="3"  format="ascii">
0 0 0
1 0 0
0 1 0
1 0.5 0
0.5 0.5 0
0.5 1 0
0.1 0 0
0.2 0 0
0.3 0 0
0.4 0 0
0.5 0 0
0.6 0 0
0.7 0 0
0.8 0 0
0.9 0 0
0 0.9 0
0 0.8 0
0 0.7 0
0 0.6 0
0 0.5 0
0 0.4 0
0 0.3 0
0 0.2 0
0 0.1 0
0.9 0.5 0
0.8 0.5 0
0.7 0.5 0
0.6 0.5 0
0.5 0.6 0
0.5 0.7 0
0.5 0.8 0
0.5 0.9 0
0.1 1 0
0.2 1 0
0.3 1 0
0.4 1 0
1 0.1 0
1 0.2 0
1 0.3 0
1 0.4 0
0.300178 0.296564 0
0.247566 0.664879 0
0.639694 0.259804 0
0.06564 0.06472 0
0.04439 0.954144 0
0.932418 0.064715 0
0.951013 0.456419 0
0.437622 0.939659 0
0.195334 0.464441 0
0.483382 0.329596 0
0.834786 0.236295 0
0.307228 0.81139 0
0.178229 0.173372 0
0.366998 0.134199 0
0.547485 0.14214 0
0.124832 0.74927 0
0.160163 0.896658 0
0.342556 0.535243 0
0.147651 0.342018 0
0.729803 0.127878 0
0.725981 0.357775 0
0.121369 0.600441 0
0.372954 0.70814 0
0.908503 0.151525 0
0.89851 0.333305 0
0.556275 0.400898 0
0.259184 0.092178 0
0.46329 0.194362 0
0.423773 0.869712 0
0.22823 0.818162 0
0.081292 0.144905 0
0.082979 0.831935 0
0.549999 0.065419 0
0.371537 0.407588 0
0.642628 0.097865 0
0.459835 0.086595 0
0.108565 0.418567 0
0.273082 0.902112 0
0.256598 0.556659 0
0.11951 0.509541 0
0.234147 0.370527 0
0.097453 0.253261 0
0.638438 0.342389 0
0.554656 0.224779 0
0.373432 0.237603 0
0.339663 0.62579 0
0.27079 0.747786 0
0.733958 0.266592 0
0.928527 0.244458 0
0.853116 0.071497 0
0.818426 0.404817 0
0.280194 0.200604 0
0.417859 0.565185 0
0.147241 0.079056 0
0.389149 0.789957 0
0.42808 0.654642 0
0.343469 0.059202 0
0.086765 0.684153 0
0.162043 0.675011 0
0.809252 0.14201 0
0.364337 0.928607 0
0.077532 0.916553 0
0.159064 0.807906 0
0.302124 0.454032 0
0.205909 0.272176 0
0.449664 0.407415 0
0.66041 0.423241 0
0.562201 0.303789 0
0.802658 0.320211 0
0.614551 0.182931 0
0.390944 0.331035 0
0.687136 0.18846 0
0.070577 0.342498 0
0.741087 0.437361 0
0.176989 0.547528 0
0.710251 0.07409 0
0.192845 0.608574 0
0.171114 0.398277 0
0.058959 0.753084 0
0.904 0.425508 0
0.438039 0.730373 0
0.057223 0.475897 0
0.058502 0.552106 0
0.330493 0.750997 0
0.312295 0.699131 0
0.684882 0.307111 0
0.053312 0.627311 0
0.198798 0.743695 0
0.392326 0.069953 0
0.351519 0.860283 0
0.397134 0.477694 0
0.319385 0.371198 0
0.767351 0.069505 0
0.441954 0.271171 0
0.759504 0.192785 0
0.855661 0.457701 0
0.500847 0.264652 0
0.916209 0.0323575 0
0.966209 0.0323575 0
0.95 0 0
0.578137 0.450449 0
0.528137 0.450449 0
0.55 0.5 0
0.03282 0.08236 0
0.03282 0.03236 0
0 0.05 0
0.502969 0.404157 0
0.474832 0.453708 0
0.468811 0.91983 0
0.468811 0.96983 0
0.5 0.95 0
0.072195 0.977072 0
0.022195 0.977072 0
0.05 1 0
0.022195 0.927072 0
0 0.95 0
0.060961 0.935348 0
0.038766 0.908276 0
0.106441 0.071888 0
0.123621 0.039528 0
0.08282 0.03236 0
0.0414895 0.815967 0
0.0414895 0.865968 0
0 0.85 0
0.173621 0.039528 0
0.15 0 0
0.05 0 0
0.301327 0.07569 0
0.321735 0.029601 0
0.279592 0.046089 0
0.070969 0.792509 0
0.0294795 0.776542 0
0.0294795 0.726542 0
0 0.75 0
0.114267 0.111981 0
0.073466 0.104813 0
0.229592 0.046089 0
0.25 0 0
0.371735 0.029601 0
0.35 0 0
0.479917 0.0432975 0
0.429918 0.0432975 0
0.45 0 0
0.461562 0.140479 0
0.413416 0.110397 0
0.415144 0.16428 0
0.574999 0.0327095 0
0.525 0.0327095 0
0.55 0 0
0.596313 0.081642 0
0.621314 0.0489325 0
0.927507 0.440964 0
0.902 0.462754 0
0.925507 0.47821 0
0.0700385 0.655732 0
0.026656 0.663655 0
0.0433825 0.692076 0
0.026656 0.613655 0
0 0.65 0
0.276766 0.370862 0
0.309781 0.333881 0
0.267162 0.333545 0
0.458929 0.582593 0
0.458929 0.532593 0
0.5 0.55 0
0.422969 0.609913 0
0.46404 0.627321 0
0.43306 0.692508 0
0.46902 0.715186 0
0.46404 0.677321 0
0.46902 0.765186 0
0.5 0.75 0
0.180082 0.948329 0
0.130082 0.948329 0
0.15 1 0
0.87983 0.441605 0
0.87783 0.478851 0
0.975507 0.42821 0
0.975507 0.47821 0
1 0.45 0
0.676439 0.0859775 0
0.705125 0.037045 0
0.671314 0.0489325 0
0.779756 0.421089 0
0.770544 0.46868 0
0.809213 0.452408 0
0.738801 0.0717975 0
0.733675 0.0347525 0
0.95 0.5 0
0.720544 0.46868 0
0.75 0.5 0
0.029251 0.526053 0
0.029251 0.576053 0
0 0.55 0
0.089006 0.530824 0
0.0899355 0.576273 0
0.12044 0.554991 0
0.461886 0.884856 0
0.461886 0.834856 0
0.5 0.85 0
0.089571 0.380533 0
0.0352885 0.371249 0
0.0542825 0.409284 0
0.918515 0.197991 0
0.964263 0.222229 0
0.954252 0.175762 0
0.630205 0.46162 0
0.680205 0.46162 0
0.65 0.5 0
0.0352885 0.321249 0
0 0.35 0
0.0487265 0.226631 0
0.0487265 0.276631 0
0 0.25 0
0.286541 0.951056 0
0.236541 0.951056 0
0.25 1 0
0.382169 0.964303 0
0.332168 0.964303 0
0.35 1 0
0.966209 0.0823575 0
1 0.05 0
0.876558 0.0357485 0
0.826558 0.0357485 0
0.85 0 0
0.710547 0.227526 0
0.663415 0.224132 0
0.686826 0.263198 0
0.964263 0.272229 0
1 0.25 0
0.40098 0.934133 0
0.418811 0.96983 0
0.45 1 0
0.326813 0.219104 0
0.290186 0.248584 0
0.336805 0.267084 0
0.243052 0.23639 0
0.253043 0.28437 0
0.224721 0.582616 0
0.220205 0.636726 0
0.252082 0.610769 0
0.92046 0.10812 0
0.954252 0.125762 0
0.66166 0.32475 0
0.662288 0.283458 0
0.639066 0.301096 0
0.949255 0.366653 0
0.949255 0.316653 0
1 0.35 0
0.291542 0.723459 0
0.27993 0.682005 0
0.259178 0.706333 0
0.394055 0.89916 0
0.430698 0.904686 0
0.531524 0.28422 0
0.492115 0.297124 0
0.522791 0.316692 0
0.040646 0.122453 0
0.040646 0.172453 0
0 0.15 0
1 0.15 0
0.151681 0.262718 0
0.192069 0.222774 0
0.137841 0.213317 0
0.558428 0.264284 0
0.600947 0.281797 0
0.597175 0.242291 0
0.508973 0.20957 0
0.551071 0.183459 0
0.505387 0.168251 0
0.118847 0.906605 0
0.088766 0.958276 0
0.3123 0.881198 0
0.329373 0.835836 0
0.290155 0.856751 0
0.18042 0.709353 0
0.223182 0.704287 0
0.204805 0.669945 0
0.114037 0.464054 0
0.157422 0.486991 0
0.15195 0.441504 0
0.279361 0.505346 0
0.248729 0.459236 0
0.225966 0.51055 0
0.423399 0.442555 0
0.448567 0.488847 0
0.892767 0.068106 0
0.65 0 0
0.901255 0.379406 0
0.952 0.412754 0
0.858877 0.146767 0
0.822019 0.189153 0
0.871644 0.19391 0
0.14825 0.528535 0
0.186162 0.505985 0
0.178931 0.775801 0
0.161815 0.746482 0
0.141948 0.778588 0
0.29813 0.591225 0
0.34111 0.580516 0
0.299577 0.545951 0
0.913519 0.288882 0
0.881657 0.240376 0
0.866648 0.2848 0
0.664882 0.143162 0
0.708469 0.158169 0
0.686215 0.112871 0
0.768308 0.293401 0
0.818722 0.278253 0
0.784372 0.251443 0
0.407693 0.254387 0
0.452622 0.232766 0
0.418361 0.215983 0
0.559238 0.352343 0
0.519829 0.365247 0
0.269689 0.146391 0
0.323596 0.167402 0
0.313091 0.113188 0
0.367897 0.0645775 0
0.396163 0.0349765 0
0.220028 0.321352 0
0.17678 0.307097 0
0.190899 0.356272 0
0.584604 0.203855 0
0.581018 0.162535 0
0.250656 0.860137 0
0.267729 0.814776 0
0.359821 0.770477 0
0.31886 0.781193 0
0.348189 0.800674 0
0.124404 0.679582 0
0.141706 0.637726 0
0.104067 0.642297 0
0.216622 0.899385 0
0.203213 0.085617 0
0.162735 0.126214 0
0.218707 0.132775 0
0.0893725 0.199083 0
0.129761 0.159139 0
0.121022 0.819921 0
0.103905 0.790602 0
0.193647 0.813034 0
0.159614 0.852282 0
0.194196 0.85741 0
0.650843 0.185696 0
0.628589 0.140398 0
0.504917 0.076007 0
0.50366 0.114367 0
0.548742 0.103779 0
0.378761 0.595487 0
0.380208 0.550214 0
0.466523 0.368506 0
0.783675 0.0347525 0
0.75 0 0
0.595056 0.120002 0
0.20263 0.384402 0
0.183224 0.431359 0
0.214741 0.417484 0
0.084015 0.29788 0
0.109114 0.342258 0
0.122552 0.29764 0
0.370334 0.82512 0
0.387646 0.864998 0
0.406461 0.829835 0
0.355164 0.351116 0
0.345461 0.389393 0
0.38124 0.369312 0
0.177444 0.641792 0
0.157107 0.604507 0
0.0286115 0.437949 0
0.0286115 0.487949 0
0 0.45 0
0.184917 0.578051 0
0.216794 0.552094 0
0.310754 0.412615 0
0.268135 0.41228 0
0.13984 0.408422 0
0.159382 0.370147 0
0.128108 0.380293 0
0.784378 0.167398 0
0.797145 0.21454 0
0.649424 0.382815 0
0.693196 0.390508 0
0.682209 0.350082 0
0.471401 0.267911 0
0.482069 0.229507 0
0.600319 0.323089 0
0.597356 0.371644 0
0.370215 0.185901 0
0.420304 0.369225 0
0.410601 0.407502 0
0.5 0.65 0
0.293615 0.645334 0
0.325979 0.66246 0
0.342624 0.703635 0
0.356309 0.666965 0
0.24951 0.782974 0
0.289009 0.779588 0
0.810542 0.362514 0
0.76432 0.338993 0
0.772204 0.381296 0
0.70942 0.286852 0
0.705431 0.332443 0
0.729969 0.312184 0
0.831184 0.106754 0
0.88081 0.111511 0
0.700748 0.430301 0
0.733534 0.397568 0
0.850584 0.326758 0
0.229212 0.186988 0
0.407496 0.52144 0
0.369845 0.506468 0
0.413594 0.760165 0
0.405497 0.719256 0
0.381051 0.749049 0
0.444574 0.794979 0
0.383872 0.640216 0
0.400517 0.681391 0
0.355233 0.0967005 0
0.42608 0.078274 0
0.379662 0.102076 0
0.055907 0.589708 0
0.0873405 0.613876 0
0.072862 0.718619 0
0.0918955 0.751177 0
0.105798 0.716711 0
0.234794 0.74574 0
0.213514 0.780928 0
0.143437 0.712141 0
0.72332 0.190623 0
0.744653 0.160332 0
0.788301 0.105758 0
0.748577 0.0986915 0
0.769527 0.134944 0
0.357928 0.894445 0
0.318709 0.915359 0
0.0802555 0.874244 0
0.121571 0.864297 0
0.32234 0.494638 0
0.349629 0.465863 0
0.384335 0.442641 0
0.336831 0.43081 0
0.608343 0.412069 0
0.527752 0.244716 0
0.858468 0.369061 0
0.627123 0.221367 0
0.382188 0.284319 0
0.345561 0.3138 0
0.437163 0.330315 0
0.746731 0.229689 0
0.149179 0.573985 0
0.720027 0.100984 0
0.810234 0.070501 0
0.861213 0.415162 0
0.827831 0.478851 0
0.85 0.5 0
0.082894 0.447232 0
0.0883665 0.492719 0
0.0578625 0.514002 0
0.300642 0.749391 0
0.351723 0.729569 0
0.321394 0.725064 0
0.416449 0.301103 0
0.462668 0.300384 0
0.837044 0.431259 0
</DataArray>
</Points>
<Cells>
<DataArray  type="UInt32"  Name="connectivity"  format="ascii">
1 138 139 
14 137 139 
45 137 138 
137 138 139 
4 141 142 
27 140 142 
65 140 141 
140 141 142 
0 144 145 
23 143 145 
43 143 144 
143 144 145 
4 141 147 
65 141 146 
105 146 147 
141 146 147 
5 149 150 
31 148 150 
47 148 149 
148 149 150 
2 152 153 
32 151 153 
44 151 152 
151 152 153 
2 152 155 
15 154 155 
44 152 154 
152 154 155 
15 154 157 
44 154 156 
101 156 157 
154 156 157 
6 159 160 
43 158 160 
93 158 159 
158 159 160 
15 162 163 
16 161 163 
71 161 162 
161 162 163 
6 159 165 
7 164 165 
93 159 164 
159 164 165 
[...]
<PointData  Vectors="u"> 
<DataArray  type="Float32"  Name="u"  NumberOfComponents="3" format="ascii">
 0.000000e+00 0.000000e+00 0.000000e+00
 0.000000e+00 0.000000e+00 0.000000e+00
 0.000000e+00 0.000000e+00 0.000000e+00
 0.000000e+00 0.000000e+00 0.000000e+00
 0.000000e+00 0.000000e+00 0.000000e+00
 0.000000e+00 0.000000e+00 0.000000e+00
 0.000000e+00 0.000000e+00 0.000000e+00
 0.000000e+00 0.000000e+00 0.000000e+00
 0.000000e+00 0.000000e+00 0.000000e+00
 0.000000e+00 0.000000e+00 0.000000e+00
 0.000000e+00 0.000000e+00 0.000000e+00
 0.000000e+00 0.000000e+00 0.000000e+00
 0.000000e+00 0.000000e+00 0.000000e+00
 0.000000e+00 0.000000e+00 0.000000e+00
 0.000000e+00 0.000000e+00 0.000000e+00
 0.000000e+00 0.000000e+00 0.000000e+00
 0.000000e+00 0.000000e+00 0.000000e+00
 0.000000e+00 0.000000e+00 0.000000e+00
 0.000000e+00 0.000000e+00 0.000000e+00
 0.000000e+00 0.000000e+00 0.000000e+00
 0.000000e+00 0.000000e+00 0.000000e+00
 0.000000e+00 0.000000e+00 0.000000e+00
 0.000000e+00 0.000000e+00 0.000000e+00
 0.000000e+00 0.000000e+00 0.000000e+00
 0.000000e+00 0.000000e+00 0.000000e+00
 0.000000e+00 0.000000e+00 0.000000e+00
 0.000000e+00 0.000000e+00 0.000000e+00
 0.000000e+00 0.000000e+00 0.000000e+00
 0.000000e+00 0.000000e+00 0.000000e+00
 0.000000e+00 0.000000e+00 0.000000e+00
 0.000000e+00 0.000000e+00 0.000000e+00
 0.000000e+00 0.000000e+00 0.000000e+00
 1.108770e-05 1.211966e-01 0.000000e+00
 -9.458481e-05 1.391980e-01 0.000000e+00
 -1.769631e-05 1.364814e-01 0.000000e+00
 1.216585e-04 1.151201e-01 0.000000e+00
 -1.222253e-01 6.603523e-03 0.000000e+00
 -1.391351e-01 1.330824e-02 0.000000e+00
 -1.365103e-01 1.402713e-02 0.000000e+00
 -1.144974e-01 7.383203e-03 0.000000e+00
 -6.867479e-02 4.514667e-02 0.000000e+00
 -7.261256e-03 1.386162e-01 0.000000e+00
 -1.338616e-01 2.347132e-02 0.000000e+00
 -2.959058e-03 2.818557e-03 0.000000e+00
 5.332603e-05 6.145122e-02 0.000000e+00
 -8.595862e-02 3.111232e-03 0.000000e+00
 -5.585513e-02 2.179087e-03 0.000000e+00
 2.285606e-04 7.953471e-02 0.000000e+00
 -3.018769e-02 1.084441e-01 0.000000e+00
 -1.525327e-01 4.854892e-02 0.000000e+00
 -1.334713e-01 1.535871e-02 0.000000e+00
 6.634290e-04 1.378661e-01 0.000000e+00
 -3.792334e-02 3.074327e-02 0.000000e+00
 -6.835846e-02 8.673897e-03 0.000000e+00
 -9.288788e-02 1.164839e-02 0.000000e+00
 -7.052517e-04 1.327430e-01 0.000000e+00
 1.068001e-04 1.403788e-01 0.000000e+00
 -4.693218e-02 1.509903e-01 0.000000e+00
 -2.419726e-02 7.837582e-02 0.000000e+00
 -1.119795e-01 9.578689e-03 0.000000e+00
 -1.563932e-01 1.416501e-02 0.000000e+00
 -5.644928e-03 1.244170e-01 0.000000e+00
 2.041957e-03 1.310912e-01 0.000000e+00
 -1.346772e-01 9.779141e-03 0.000000e+00
 -1.415113e-01 1.180233e-02 0.000000e+00
 -1.713873e-01 2.866216e-02 0.000000e+00
 -4.333665e-02 7.163833e-03 0.000000e+00
 -9.160787e-02 1.773319e-02 0.000000e+00
 6.823835e-04 9.446745e-02 0.000000e+00
 -2.901447e-04 1.374204e-01 0.000000e+00
 -1.088099e-02 1.948364e-02 0.000000e+00
 2.049467e-04 1.076438e-01 0.000000e+00
 -5.516732e-02 2.820938e-03 0.000000e+00
 -1.166388e-01 1.039992e-01 0.000000e+00
 -8.766778e-02 6.621980e-03 0.000000e+00
 -6.125916e-02 3.914017e-03 0.000000e+00
 -1.232349e-02 9.155992e-02 0.000000e+00
 2.478958e-04 1.360776e-01 0.000000e+00
 -2.772646e-02 1.340479e-01 0.000000e+00
 -1.041725e-02 1.122220e-01 0.000000e+00
 -4.858899e-02 7.612958e-02 0.000000e+00
 -1.422981e-02 5.059560e-02 0.000000e+00
 -1.651871e-01 2.145789e-02 0.000000e+00
 -1.137618e-01 2.290922e-02 0.000000e+00
 -8.171916e-02 2.576746e-02 0.000000e+00
 -9.715175e-03 1.469871e-01 0.000000e+00
 -1.091996e-03 1.381102e-01 0.000000e+00
 -1.373875e-01 1.955802e-02 0.000000e+00
 -1.354043e-01 1.403763e-02 0.000000e+00
 -8.745618e-02 2.970874e-03 0.000000e+00
 -1.263277e-01 6.129556e-03 0.000000e+00
 -6.043262e-02 2.390758e-02 0.000000e+00
 -1.802940e-02 1.127895e-01 0.000000e+00
 -1.888136e-02 8.513366e-03 0.000000e+00
 1.841120e-03 1.214724e-01 0.000000e+00
 2.599450e-03 8.655771e-02 0.000000e+00
 -3.641224e-02 1.742428e-03 0.000000e+00
 -9.043475e-04 1.091018e-01 0.000000e+00
 -4.233420e-03 1.375589e-01 0.000000e+00
 -1.245364e-01 9.738068e-03 0.000000e+00
 4.398858e-04 1.318227e-01 0.000000e+00
 1.709566e-04 1.021934e-01 0.000000e+00
 -3.217866e-04 1.399932e-01 0.000000e+00
 -6.963518e-02 1.159792e-01 0.000000e+00
 -4.216781e-02 5.193283e-02 0.000000e+00
 -1.627172e-01 8.913076e-02 0.000000e+00
 -1.290314e-01 7.424598e-03 0.000000e+00
 -1.510674e-01 3.107224e-02 0.000000e+00
 -1.468866e-01 1.463138e-02 0.000000e+00
 -1.105504e-01 1.744678e-02 0.000000e+00
 -1.139750e-01 5.923734e-02 0.000000e+00
 -1.194581e-01 1.711296e-02 0.000000e+00
 -6.574084e-03 5.867764e-02 0.000000e+00
 -9.966679e-02 3.635218e-03 0.000000e+00
 -1.684998e-02 1.263919e-01 0.000000e+00
 -7.756751e-02 3.806729e-03 0.000000e+00
 -1.164528e-02 1.343497e-01 0.000000e+00
 -2.826474e-02 9.186611e-02 0.000000e+00
 1.107460e-04 8.132935e-02 0.000000e+00
 -9.879803e-02 4.087059e-03 0.000000e+00
 2.131320e-03 7.558387e-02 0.000000e+00
 -2.863418e-03 6.677796e-02 0.000000e+00
 -1.835411e-03 7.475401e-02 0.000000e+00
 9.493630e-04 1.390688e-01 0.000000e+00
 -1.766487e-03 1.418863e-01 0.000000e+00
 -1.514018e-01 2.081020e-02 0.000000e+00
 -6.233782e-04 7.231643e-02 0.000000e+00
 -1.909202e-03 1.391120e-01 0.000000e+00
 -4.613938e-02 2.270114e-03 0.000000e+00
 9.229396e-04 1.348146e-01 0.000000e+00
 -9.814932e-02 1.391757e-01 0.000000e+00
 -8.474714e-02 7.667948e-02 0.000000e+00
 -7.863754e-02 3.095395e-03 0.000000e+00
 -1.096967e-01 3.443818e-02 0.000000e+00
 -1.263847e-01 1.555298e-02 0.000000e+00
 -6.049693e-02 1.380669e-03 0.000000e+00
 -1.213431e-01 3.069402e-02 0.000000e+00
 -4.243137e-02 9.107464e-04 0.000000e+00
 -4.513473e-02 1.507902e-03 0.000000e+00
 0.000000e+00 0.000000e+00 0.000000e+00
 -1.056714e-01 8.657527e-03 0.000000e+00
 -1.261286e-01 3.008315e-02 0.000000e+00
 0.000000e+00 0.000000e+00 0.000000e+00
 -1.036509e-03 1.451484e-03 0.000000e+00
 4.199113e-04 -4.121511e-04 0.000000e+00
 0.000000e+00 0.000000e+00 0.000000e+00
 -1.763813e-01 5.558858e-02 0.000000e+00
 -1.371635e-01 8.100154e-02 0.000000e+00
 1.198656e-04 3.834507e-02 0.000000e+00
 6.758344e-05 3.845545e-02 0.000000e+00
 0.000000e+00 0.000000e+00 0.000000e+00
 3.316201e-05 9.675053e-02 0.000000e+00
 1.246060e-05 2.893620e-02 0.000000e+00
 7.224896e-06 6.928779e-02 0.000000e+00
 6.209539e-05 2.908664e-02 0.000000e+00
 0.000000e+00 0.000000e+00 0.000000e+00
 1.127197e-04 8.359460e-02 0.000000e+00
 1.360911e-04 5.326451e-02 0.000000e+00
 -9.699703e-03 6.307969e-03 0.000000e+00
 -5.900273e-03 2.215148e-03 0.000000e+00
 -1.306174e-03 8.907654e-04 0.000000e+00
 1.366211e-04 5.829572e-02 0.000000e+00
 1.499396e-04 5.810695e-02 0.000000e+00
 0.000000e+00 0.000000e+00 0.000000e+00
 -1.138787e-02 2.189581e-03 0.000000e+00
 0.000000e+00 0.000000e+00 0.000000e+00
 0.000000e+00 0.000000e+00 0.000000e+00
 -4.177069e-02 3.755838e-03 0.000000e+00
 -1.624396e-02 3.575695e-04 0.000000e+00
 -2.450424e-02 1.592487e-03 0.000000e+00
 1.698340e-04 9.550823e-02 0.000000e+00
 1.260517e-04 4.050700e-02 0.000000e+00
 1.098665e-04 4.063217e-02 0.000000e+00
 0.000000e+00 0.000000e+00 0.000000e+00
 -1.685472e-02 1.522573e-02 0.000000e+00
 -7.270129e-03 9.622373e-03 0.000000e+00
 -2.011408e-02 2.250696e-03 0.000000e+00
 0.000000e+00 0.000000e+00 0.000000e+00
 -1.798131e-02 3.217519e-04 0.000000e+00
 0.000000e+00 0.000000e+00 0.000000e+00
 -3.263981e-02 1.009669e-03 0.000000e+00
 -3.029912e-02 8.845221e-04 0.000000e+00
 0.000000e+00 0.000000e+00 0.000000e+00
 -8.120170e-02 9.894357e-03 0.000000e+00
 -6.712195e-02 5.811243e-03 0.000000e+00
 -7.937318e-02 1.243344e-02 0.000000e+00
 -2.739012e-02 7.692017e-04 0.000000e+00
 -2.522388e-02 6.330425e-04 0.000000e+00
 0.000000e+00 0.000000e+00 0.000000e+00
 -7.191625e-02 4.662147e-03 0.000000e+00
 -4.663811e-02 1.855342e-03 0.000000e+00
 -7.852545e-02 3.042874e-03 0.000000e+00
 -5.010978e-02 1.218814e-03 0.000000e+00
 -2.647647e-02 5.931310e-04 0.000000e+00
 -8.311721e-04 9.254972e-02 0.000000e+00
 3.805909e-05 3.635611e-02 0.000000e+00
 5.160074e-06 6.031638e-02 0.000000e+00
 -1.169885e-04 3.590003e-02 0.000000e+00
 0.000000e+00 0.000000e+00 0.000000e+00
 -6.466437e-02 7.417983e-02 0.000000e+00
 -7.625326e-02 5.868868e-02 0.000000e+00
 -5.987675e-02 6.017776e-02 0.000000e+00
 -1.042116e-03 4.699031e-02 0.000000e+00
 -2.657249e-02 6.775264e-02 0.000000e+00
 0.000000e+00 0.000000e+00 0.000000e+00
 -1.997365e-03 9.655145e-02 0.000000e+00
 1.862851e-03 3.671104e-02 0.000000e+00
 2.750125e-03 8.062720e-02 0.000000e+00
 1.118215e-03 3.393958e-02 0.000000e+00
 1.723236e-03 3.881944e-02 0.000000e+00
 7.704325e-04 3.553761e-02 0.000000e+00
 0.000000e+00 0.000000e+00 0.000000e+00
 3.150548e-05 1.404398e-01 0.000000e+00
 8.056005e-05 1.355759e-01 0.000000e+00
 -4.648517e-05 1.396620e-01 0.000000e+00
 -8.158956e-02 2.542276e-03 0.000000e+00
 -2.741192e-02 4.088527e-04 0.000000e+00
 -8.954731e-02 4.784180e-03 0.000000e+00
 -2.387872e-02 1.156860e-03 0.000000e+00
 -6.173931e-02 3.270082e-03 0.000000e+00
 -8.372131e-02 5.205929e-03 0.000000e+00
 -3.818345e-02 9.469509e-04 0.000000e+00
 -5.041566e-02 1.837300e-03 0.000000e+00
 -1.154894e-01 4.888145e-03 0.000000e+00
 -4.824487e-02 8.997059e-04 0.000000e+00
 -7.158842e-02 1.796480e-03 0.000000e+00
 -7.826666e-02 3.437032e-03 0.000000e+00
 -3.777473e-02 8.747379e-04 0.000000e+00
 0.000000e+00 0.000000e+00 0.000000e+00
 -5.130580e-02 1.088039e-03 0.000000e+00
 0.000000e+00 0.000000e+00 0.000000e+00
 -5.385936e-04 3.729241e-02 0.000000e+00
 -3.015331e-04 3.896176e-02 0.000000e+00
 0.000000e+00 0.000000e+00 0.000000e+00
 -5.205866e-03 1.001237e-01 0.000000e+00
 -3.787364e-03 1.055107e-01 0.000000e+00
 -8.037829e-03 1.191508e-01 0.000000e+00
 2.311672e-04 4.796745e-02 0.000000e+00
 4.433761e-04 4.714244e-02 0.000000e+00
 0.000000e+00 0.000000e+00 0.000000e+00
 -9.506868e-03 7.627763e-02 0.000000e+00
 -1.558023e-03 3.430692e-02 0.000000e+00
 -3.300463e-03 5.637793e-02 0.000000e+00
 -1.362948e-01 1.264734e-02 0.000000e+00
 -1.368576e-01 1.385635e-02 0.000000e+00
 -1.391804e-01 1.173681e-02 0.000000e+00
 -7.274555e-02 2.497221e-03 0.000000e+00
 -6.733557e-02 1.895032e-03 0.000000e+00
 0.000000e+00 0.000000e+00 0.000000e+00
 -1.797850e-03 2.948296e-02 0.000000e+00
 0.000000e+00 0.000000e+00 0.000000e+00
 -4.332073e-03 2.600587e-02 0.000000e+00
 -3.877001e-03 3.404860e-02 0.000000e+00
 0.000000e+00 0.000000e+00 0.000000e+00
 1.166453e-04 1.361991e-01 0.000000e+00
 3.178987e-05 1.365601e-01 0.000000e+00
 -8.863931e-05 1.359688e-01 0.000000e+00
 2.220341e-04 1.253216e-01 0.000000e+00
 1.709328e-04 1.365327e-01 0.000000e+00
 8.029242e-05 1.347533e-01 0.000000e+00
 -1.071718e-01 4.996401e-03 0.000000e+00
 -7.138697e-02 2.902889e-03 0.000000e+00
 -4.544190e-02 8.700323e-04 0.000000e+00
 -4.320764e-02 8.235374e-04 0.000000e+00
 0.000000e+00 0.000000e+00 0.000000e+00
 -1.277612e-01 1.946229e-02 0.000000e+00
 -1.241050e-01 2.073536e-02 0.000000e+00
 -1.362238e-01 2.156805e-02 0.000000e+00
 -1.358802e-01 1.432006e-02 0.000000e+00
 -1.358709e-01 1.459332e-02 0.000000e+00
 3.722316e-04 1.143870e-01 0.000000e+00
 1.686716e-04 9.981727e-02 0.000000e+00
 7.933212e-05 6.407346e-02 0.000000e+00
 -6.972702e-02 2.334396e-02 0.000000e+00
 -6.301878e-02 3.275418e-02 0.000000e+00
 -7.653353e-02 3.432052e-02 0.000000e+00
 -5.229097e-02 3.656062e-02 0.000000e+00
 -5.423259e-02 4.674147e-02 0.000000e+00
 -1.846955e-02 1.330886e-01 0.000000e+00
 -1.005028e-02 1.368451e-01 0.000000e+00
 -1.534687e-02 1.379883e-01 0.000000e+00
 -1.219428e-01 6.451506e-03 0.000000e+00
 -1.327992e-01 8.299536e-03 0.000000e+00
 -1.585739e-01 2.113616e-02 0.000000e+00
 -1.433491e-01 2.277429e-02 0.000000e+00
 -1.509427e-01 2.384770e-02 0.000000e+00
 -1.331455e-01 9.826639e-03 0.000000e+00
 -1.380843e-01 1.293452e-02 0.000000e+00
 -1.348976e-01 1.150306e-02 0.000000e+00
 -1.340177e-03 1.398898e-01 0.000000e+00
 -4.773920e-03 1.406296e-01 0.000000e+00
 -3.462685e-03 1.386660e-01 0.000000e+00
 6.263169e-04 1.188518e-01 0.000000e+00
 4.109878e-04 8.732652e-02 0.000000e+00
 -1.368941e-01 3.209487e-02 0.000000e+00
 -1.364404e-01 3.854179e-02 0.000000e+00
 -1.538925e-01 3.822916e-02 0.000000e+00
 -2.819541e-03 6.646820e-03 0.000000e+00
 -3.239777e-03 1.372264e-02 0.000000e+00
 0.000000e+00 0.000000e+00 0.000000e+00
 -1.398164e-01 1.041209e-02 0.000000e+00
 -2.825270e-02 5.714178e-02 0.000000e+00
 -4.061798e-02 4.176752e-02 0.000000e+00
 -2.633087e-02 4.405543e-02 0.000000e+00
 -1.300968e-01 2.767658e-02 0.000000e+00
 -1.418485e-01 2.636624e-02 0.000000e+00
 -1.245774e-01 2.392771e-02 0.000000e+00
 -1.025381e-01 2.080790e-02 0.000000e+00
 -1.025160e-01 1.731456e-02 0.000000e+00
 -9.291389e-02 1.453496e-02 0.000000e+00
 1.639293e-04 1.314480e-01 0.000000e+00
 9.550628e-05 1.125920e-01 0.000000e+00
 5.512760e-04 1.371147e-01 0.000000e+00
 9.123913e-04 1.373190e-01 0.000000e+00
 4.602293e-04 1.367964e-01 0.000000e+00
 -3.050154e-03 1.391603e-01 0.000000e+00
 -3.928927e-03 1.381258e-01 0.000000e+00
 -6.194925e-03 1.378120e-01 0.000000e+00
 -1.162580e-02 1.023924e-01 0.000000e+00
 -1.912268e-02 1.142051e-01 0.000000e+00
 -2.102851e-02 1.035679e-01 0.000000e+00
 -4.693533e-02 1.287956e-01 0.000000e+00
 -4.721184e-02 1.079707e-01 0.000000e+00
 -3.167369e-02 1.209422e-01 0.000000e+00
 -1.361015e-01 1.177333e-01 0.000000e+00
 -8.871076e-02 1.043441e-01 0.000000e+00
 -8.681174e-02 2.885695e-03 0.000000e+00
 0.000000e+00 0.000000e+00 0.000000e+00
 -1.330645e-01 8.285461e-03 0.000000e+00
 -1.067779e-01 5.846613e-03 0.000000e+00
 -1.300557e-01 9.507377e-03 0.000000e+00
 -1.307434e-01 1.348750e-02 0.000000e+00
 -1.339642e-01 1.278741e-02 0.000000e+00
 -1.393305e-02 1.213784e-01 0.000000e+00
 -2.343461e-02 1.186486e-01 0.000000e+00
 -9.367508e-04 1.400681e-01 0.000000e+00
 -1.397419e-03 1.395163e-01 0.000000e+00
 -5.251509e-04 1.376778e-01 0.000000e+00
 -2.150206e-02 1.454385e-01 0.000000e+00
 -2.414724e-02 1.509595e-01 0.000000e+00
 -3.692089e-02 1.427635e-01 0.000000e+00
 -1.378898e-01 1.374290e-02 0.000000e+00
 -1.346447e-01 1.437902e-02 0.000000e+00
 -1.386235e-01 1.446124e-02 0.000000e+00
 -1.085595e-01 1.222485e-02 0.000000e+00
 -1.170537e-01 1.345776e-02 0.000000e+00
 -1.006979e-01 8.254834e-03 0.000000e+00
 -1.434713e-01 1.747330e-02 0.000000e+00
 -1.387651e-01 1.595463e-02 0.000000e+00
 -1.343815e-01 1.738226e-02 0.000000e+00
 -9.405749e-02 2.994871e-02 0.000000e+00
 -9.877440e-02 2.471267e-02 0.000000e+00
 -8.772658e-02 2.105818e-02 0.000000e+00
 -1.734591e-01 3.308341e-02 0.000000e+00
 -1.762311e-01 4.514768e-02 0.000000e+00
 -5.643493e-02 1.526665e-02 0.000000e+00
 -6.669882e-02 1.466157e-02 0.000000e+00
 -5.703189e-02 7.622504e-03 0.000000e+00
 -4.126113e-02 1.951865e-03 0.000000e+00
 -2.202147e-02 4.196524e-04 0.000000e+00
 -4.478289e-02 6.268519e-02 0.000000e+00
 -3.325832e-02 6.616651e-02 0.000000e+00
 -3.551352e-02 7.770193e-02 0.000000e+00
 -1.115167e-01 2.008018e-02 0.000000e+00
 -1.021114e-01 1.479146e-02 0.000000e+00
 1.268630e-04 1.363527e-01 0.000000e+00
 4.538049e-05 1.367225e-01 0.000000e+00
 1.854800e-03 1.339713e-01 0.000000e+00
 8.549383e-04 1.385329e-01 0.000000e+00
 1.397838e-03 1.359081e-01 0.000000e+00
 -2.393420e-03 1.306284e-01 0.000000e+00
 -5.244129e-03 1.329209e-01 0.000000e+00
 -2.623523e-03 1.194120e-01 0.000000e+00
 7.047208e-05 1.378996e-01 0.000000e+00
 -3.184523e-02 8.534172e-03 0.000000e+00
 -3.092639e-02 1.937363e-02 0.000000e+00
 -4.511272e-02 1.720037e-02 0.000000e+00
 -1.330515e-02 3.483444e-02 0.000000e+00
 -2.428212e-02 2.857037e-02 0.000000e+00
 4.499486e-05 1.320841e-01 0.000000e+00
 -6.930673e-07 1.233215e-01 0.000000e+00
 -4.188287e-04 1.395995e-01 0.000000e+00
 1.717620e-05 1.402458e-01 0.000000e+00
 -3.871856e-05 1.396014e-01 0.000000e+00
 -1.152367e-01 1.745260e-02 0.000000e+00
 -1.031862e-01 1.200114e-02 0.000000e+00
 -5.891876e-02 3.412117e-03 0.000000e+00
 -7.858791e-02 7.385453e-03 0.000000e+00
 -7.939279e-02 6.802197e-03 0.000000e+00
 -1.374781e-02 1.396304e-01 0.000000e+00
 -3.681264e-02 1.465346e-01 0.000000e+00
 -1.650403e-01 6.613256e-02 0.000000e+00
 -4.001494e-02 8.156251e-04 0.000000e+00
 0.000000e+00 0.000000e+00 0.000000e+00
 -9.217556e-02 9.241090e-03 0.000000e+00
 -3.807858e-02 8.430074e-02 0.000000e+00
 -2.974117e-02 1.000991e-01 0.000000e+00
 -3.995543e-02 9.349752e-02 0.000000e+00
 -1.003691e-02 5.666102e-02 0.000000e+00
 -1.462491e-02 7.488761e-02 0.000000e+00
 -1.919820e-02 6.613463e-02 0.000000e+00
 1.349713e-03 1.301393e-01 0.000000e+00
 9.489547e-04 1.224643e-01 0.000000e+00
 1.205261e-03 1.098481e-01 0.000000e+00
 -1.009932e-01 6.879209e-02 0.000000e+00
 -1.004676e-01 8.982511e-02 0.000000e+00
 -1.196027e-01 8.038506e-02 0.000000e+00
 -7.259026e-03 1.365144e-01 0.000000e+00
 -8.736070e-03 1.323802e-01 0.000000e+00
 -7.851188e-04 3.196695e-02 0.000000e+00
 -6.516389e-04 3.485221e-02 0.000000e+00
 0.000000e+00 0.000000e+00 0.000000e+00
 -1.438474e-02 1.309584e-01 0.000000e+00
 -2.267674e-02 1.285467e-01 0.000000e+00
 -8.049793e-02 9.741472e-02 0.000000e+00
 -6.018724e-02 9.142049e-02 0.000000e+00
 -1.965710e-02 9.512145e-02 0.000000e+00
 -2.625556e-02 8.514654e-02 0.000000e+00
 -1.799709e-02 8.726230e-02 0.000000e+00
 -1.262091e-01 1.266968e-02 0.000000e+00
 -1.305383e-01 1.573072e-02 0.000000e+00
 -1.619809e-01 1.510539e-02 0.000000e+00
 -1.516581e-01 1.121588e-02 0.000000e+00
 -1.614981e-01 1.732197e-02 0.000000e+00
 -1.162507e-01 3.268448e-02 0.000000e+00
 -1.036576e-01 2.414753e-02 0.000000e+00
 -1.613521e-01 2.680296e-02 0.000000e+00
 -1.726428e-01 2.334595e-02 0.000000e+00
 -7.517308e-02 1.578154e-02 0.000000e+00
 -1.428601e-01 7.811692e-02 0.000000e+00
 -1.416012e-01 1.022822e-01 0.000000e+00
 0.000000e+00 0.000000e+00 0.000000e+00
 -8.957913e-03 1.436696e-01 0.000000e+00
 -4.509947e-03 1.444562e-01 0.000000e+00
 3.222452e-04 1.400537e-01 0.000000e+00
 -1.406065e-03 1.397608e-01 0.000000e+00
 -5.885777e-04 1.370881e-01 0.000000e+00
 7.611547e-05 1.380022e-01 0.000000e+00
 -1.465955e-01 1.074591e-02 0.000000e+00
 -1.521417e-01 1.455320e-02 0.000000e+00
 -1.454352e-01 9.695384e-03 0.000000e+00
 -1.436820e-01 2.034677e-02 0.000000e+00
 -1.568058e-01 1.782913e-02 0.000000e+00
 -1.501899e-01 1.822461e-02 0.000000e+00
 -1.133184e-01 6.065985e-03 0.000000e+00
 -1.203887e-01 6.380272e-03 0.000000e+00
 -1.140791e-01 5.151264e-03 0.000000e+00
 -1.416747e-01 8.755843e-03 0.000000e+00
 -1.443323e-01 1.282259e-02 0.000000e+00
 -5.021498e-02 2.781139e-02 0.000000e+00
 -5.529364e-02 1.356697e-01 0.000000e+00
 -6.928874e-02 1.489283e-01 0.000000e+00
 2.153215e-03 1.029652e-01 0.000000e+00
 2.818206e-03 1.098041e-01 0.000000e+00
 2.366508e-03 1.261087e-01 0.000000e+00
 1.099214e-03 6.926462e-02 0.000000e+00
 -1.855421e-03 1.300582e-01 0.000000e+00
 2.621659e-03 1.147287e-01 0.000000e+00
 -5.641494e-02 4.768515e-03 0.000000e+00
 -5.373175e-02 2.984760e-03 0.000000e+00
 -6.072315e-02 5.099713e-03 0.000000e+00
 -1.141053e-03 7.395459e-02 0.000000e+00
 -2.499971e-03 1.063989e-01 0.000000e+00
 -2.096766e-04 9.691592e-02 0.000000e+00
 -1.882326e-04 1.145938e-01 0.000000e+00
 -8.469128e-04 1.233177e-01 0.000000e+00
 -1.782666e-03 1.377411e-01 0.000000e+00
 -9.109995e-04 1.383986e-01 0.000000e+00
 -1.998719e-03 1.366961e-01 0.000000e+00
 -1.231337e-01 1.643183e-02 0.000000e+00
 -1.213639e-01 1.294160e-02 0.000000e+00
 -1.085486e-01 6.367405e-03 0.000000e+00
 -1.001655e-01 6.051725e-03 0.000000e+00
 -1.186629e-01 9.716602e-03 0.000000e+00
 6.835110e-04 1.334500e-01 0.000000e+00
 3.938310e-04 1.370164e-01 0.000000e+00
 2.119338e-04 1.050215e-01 0.000000e+00
 1.637032e-04 1.325133e-01 0.000000e+00
 -6.385552e-02 1.378887e-01 0.000000e+00
 -8.768786e-02 1.337633e-01 0.000000e+00
 -1.161759e-01 1.258214e-01 0.000000e+00
 -9.222725e-02 1.127753e-01 0.000000e+00
 -1.514143e-01 1.398920e-02 0.000000e+00
 -1.172710e-01 2.620207e-02 0.000000e+00
 -1.404540e-01 9.270921e-03 0.000000e+00
 -1.205454e-01 2.137496e-02 0.000000e+00
 -9.479946e-02 3.932911e-02 0.000000e+00
 -8.808586e-02 5.062576e-02 0.000000e+00