<?xml version="1.0"?>
<VTKFile type="UnstructuredGrid"  version="0.1"  >
<UnstructuredGrid>
<Piece  NumberOfPoints="505" NumberOfCells="928">
<Points>
<DataArray  type="Float32"  NumberOfComponents="3"  format="ascii">
0 0 0
1 0 0
0 1 0
1 0.5 0
0.5 0.5 0
0.5 1 0
0.1 0 0
0.2 0 0
0.3 0 0
0.4 0 0
0.5 0 0
0.6 0 0
0.7 0 0
0.8 0 0
0.9 0 0
0 0.9 0
0 0.8 0
0 0.7 0
0 0.6 0
0 0.5 0
0 0.4 0
0 0.3 0
0 0.2 0
0 0.1 0
0.9 0.5 0
0.8 0.5 0
0.7 0.5 0
0.6 0.5 0
0.5 0.6 0
0.5 0.7 0
0.5 0.8 0
0.5 0.9 0
0.1 1 0
0.2 1 0
0.3 1 0
0.4 1 0
1 0.1 0
1 0.2 0
1 0.3 0
1 0.4 0
0.300178 0.296564 0
0.247566 0.664879 0
0.639694 0.259804 0
0.06564 0.06472 0
0.04439 0.954144 0
0.932418 0.064715 0
0.951013 0.456419 0
0.437622 0.939659 0
0.195334 0.464441 0
0.483382 0.329596 0
0.834786 0.236295 0
0.307228 0.81139 0
0.178229 0.173372 0
0.366998 0.134199 0
0.547485 0.14214 0
0.124832 0.74927 0
0.160163 0.896658 0
0.342556 0.535243 0
0.147651 0.342018 0
0.729803 0.127878 0
0.725981 0.357775 0
0.121369 0.600441 0
0.372954 0.70814 0
0.908503 0.151525 0
0.89851 0.333305 0
0.556275 0.400898 0
0.259184 0.092178 0
0.46329 0.194362 0
0.423773 0.869712 0
0.22823 0.818162 0
0.081292 0.144905 0
0.082979 0.831935 0
0.549999 0.065419 0
0.371537 0.407588 0
0.642628 0.097865 0
0.459835 0.086595 0
0.108565 0.418567 0
0.273082 0.902112 0
0.256598 0.556659 0
0.11951 0.509541 0
0.234147 0.370527 0
0.097453 0.253261 0
0.638438 0.342389 0
0.554656 0.224779 0
0.373432 0.237603 0
0.339663 0.62579 0
0.27079 0.747786 0
0.733958 0.266592 0
0.928527 0.244458 0
0.853116 0.071497 0
0.818426 0.404817 0
0.280194 0.200604 0
0.417859 0.565185 0
0.147241 0.079056 0
0.389149 0.789957 0
0.42808 0.654642 0
0.343469 0.059202 0
0.086765 0.684153 0
0.162043 0.675011 0
0.809252 0.14201 0
0.364337 0.928607 0
0.077532 0.916553 0
0.159064 0.807906 0
0.302124 0.454032 0
0.205909 0.272176 0
0.449664 0.407415 0
0.66041 0.423241 0
0.562201 0.303789 0
0.802658 0.320211 0
0.614551 0.182931 0
0.390944 0.331035 0
0.687136 0.18846 0
0.070577 0.342498 0
0.741087 0.437361 0
0.176989 0.547528 0
0.710251 0.07409 0
0.192845 0.608574 0
0.171114 0.398277 0
0.058959 0.753084 0
0.904 0.425508 0
0.438039 0.730373 0
0.057223 0.475897 0
0.058502 0.552106 0
0.330493 0.750997 0
0.312295 0.699131 0
0.684882 0.307111 0
0.053312 0.627311 0
0.198798 0.743695 0
0.392326 0.069953 0
0.351519 0.860283 0
0.397134 0.477694 0
0.319385 0.371198 0
0.767351 0.069505 0
0.441954 0.271171 0
0.759504 0.192785 0
0.855661 0.457701 0
0.500847 0.264652 0
0.916209 0.0323575 0
0.966209 0.0323575 0
0.95 0 0
0.578137 0.450449 0
0.528137 0.450449 0
0.55 0.5 0
0.03282 0.08236 0
0.03282 0.03236 0
0 0.05 0
0.502969 0.404157 0
0.474832 0.453708 0
0.468811 0.91983 0
0.468811 0.96983 0
0.5 0.95 0
0.072195 0.977072 0
0.022195 0.977072 0
0.05 1 0
0.022195 0.927072 0
0 0.95 0
0.060961 0.935348 0
0.038766 0.908276 0
0.106441 0.071888 0
0.123621 0.039528 0
0.08282 0.03236 0
0.0414895 0.815967 0
0.0414895 0.865968 0
0 0.85 0
0.173621 0.039528 0
0.15 0 0
0.05 0 0
0.301327 0.07569 0
0.321735 0.029601 0
0.279592 0.046089 0
0.070969 0.792509 0
0.0294795 0.776542 0
0.0294795 0.726542 0
0 0.75 0
0.114267 0.111981 0
0.073466 0.104813 0
0.229592 0.046089 0
0.25 0 0
0.371735 0.029601 0
0.35 0 0
0.479917 0.0432975 0
0.429918 0.0432975 0
0.45 0 0
0.461562 0.140479 0
0.413416 0.110397 0
0.415144 0.16428 0
0.574999 0.0327095 0
0.525 0.0327095 0
0.55 0 0
0.596313 0.081642 0
0.621314 0.0489325 0
0.927507 0.440964 0
0.902 0.462754 0
0.925507 0.47821 0
0.0700385 0.655732 0
0.026656 0.663655 0
0.0433825 0.692076 0
0.026656 0.613655 0
0 0.65 0
0.276766 0.370862 0
0.309781 0.333881 0
0.267162 0.333545 0
0.458929 0.582593 0
0.458929 0.532593 0
0.5 0.55 0
0.422969 0.609913 0
0.46404 0.627321 0
0.43306 0.692508 0
0.46902 0.715186 0
0.46404 0.677321 0
0.46902 0.765186 0
0.5 0.75 0
0.180082 0.948329 0
0.130082 0.948329 0
0.15 1 0
0.87983 0.441605 0
0.87783 0.478851 0
0.975507 0.42821 0
0.975507 0.47821 0
1 0.45 0
0.676439 0.0859775 0
0.705125 0.037045 0
0.671314 0.0489325 0
0.779756 0.421089 0
0.770544 0.46868 0
0.809213 0.452408 0
0.738801 0.0717975 0
0.733675 0.0347525 0
0.95 0.5 0
0.720544 0.46868 0
0.75 0.5 0
0.029251 0.526053 0
0.029251 0.576053 0
0 0.55 0
0.089006 0.530824 0
0.0899355 0.576273 0
0.12044 0.554991 0
0.461886 0.884856 0
0.461886 0.834856 0
0.5 0.85 0
0.089571 0.380533 0
0.0352885 0.371249 0
0.0542825 0.409284 0
0.918515 0.197991 0
0.964263 0.222229 0
0.954252 0.175762 0
0.630205 0.46162 0
0.680205 0.46162 0
0.65 0.5 0
0.0352885 0.321249 0
0 0.35 0
0.0487265 0.226631 0
0.0487265 0.276631 0
0 0.25 0
0.286541 0.951056 0
0.236541 0.951056 0
0.25 1 0
0.382169 0.964303 0
0.332168 0.964303 0
0.35 1 0
0.966209 0.0823575 0
1 0.05 0
0.876558 0.0357485 0
0.826558 0.0357485 0
0.85 0 0
0.710547 0.227526 0
0.663415 0.224132 0
0.686826 0.263198 0
0.964263 0.272229 0
1 0.25 0
0.40098 0.934133 0
0.418811 0.96983 0
0.45 1 0
0.326813 0.219104 0
0.290186 0.248584 0
0.336805 0.267084 0
0.243052 0.23639 0
0.253043 0.28437 0
0.224721 0.582616 0
0.220205 0.636726 0
0.252082 0.610769 0
0.92046 0.10812 0
0.954252 0.125762 0
0.66166 0.32475 0
0.662288 0.283458 0
0.639066 0.301096 0
0.949255 0.366653 0
0.949255 0.316653 0
1 0.35 0
0.291542 0.723459 0
0.27993 0.682005 0
0.259178 0.706333 0
0.394055 0.89916 0
0.430698 0.904686 0
0.531524 0.28422 0
0.492115 0.297124 0
0.522791 0.316692 0
0.040646 0.122453 0
0.040646 0.172453 0
0 0.15 0
1 0.15 0
0.151681 0.262718 0
0.192069 0.222774 0
0.137841 0.213317 0
0.558428 0.264284 0
0.600947 0.281797 0
0.597175 0.242291 0
0.508973 0.20957 0
0.551071 0.183459 0
0.505387 0.168251 0
0.118847 0.906605 0
0.088766 0.958276 0
0.3123 0.881198 0
0.329373 0.835836 0
0.290155 0.856751 0
0.18042 0.709353 0
0.223182 0.704287 0
0.204805 0.669945 0
0.114037 0.464054 0
0.157422 0.486991 0
0.15195 0.441504 0
0.279361 0.505346 0
0.248729 0.459236 0
0.225966 0.51055 0
0.423399 0.442555 0
0.448567 0.488847 0
0.892767 0.068106 0
0.65 0 0
0.901255 0.379406 0
0.952 0.412754 0
0.858877 0.146767 0
0.822019 0.189153 0
0.871644 0.19391 0
0.14825 0.528535 0
0.186162 0.505985 0
0.178931 0.775801 0
0.161815 0.746482 0
0.141948 0.778588 0
0.29813 0.591225 0
0.34111 0.580516 0
0.299577 0.545951 0
0.913519 0.288882 0
0.881657 0.240376 0
0.866648 0.2848 0
0.664882 0.143162 0
0.708469 0.158169 0
0.686215 0.112871 0
0.768308 0.293401 0
0.818722 0.278253 0
0.784372 0.251443 0
0.407693 0.254387 0
0.452622 0.232766 0
0.418361 0.215983 0
0.559238 0.352343 0
0.519829 0.365247 0
0.269689 0.146391 0
0.323596 0.167402 0
0.313091 0.113188 0
0.367897 0.0645775 0
0.396163 0.0349765 0
0.220028 0.321352 0
0.17678 0.307097 0
0.190899 0.356272 0
0.584604 0.203855 0
0.581018 0.162535 0
0.250656 0.860137 0
0.267729 0.814776 0
0.359821 0.770477 0
0.31886 0.781193 0
0.348189 0.800674 0
0.124404 0.679582 0
0.141706 0.637726 0
0.104067 0.642297 0
0.216622 0.899385 0
0.203213 0.085617 0
0.162735 0.126214 0
0.218707 0.132775 0
0.0893725 0.199083 0
0.129761 0.159139 0
0.121022 0.819921 0
0.103905 0.790602 0
0.193647 0.813034 0
0.159614 0.852282 0
0.194196 0.85741 0
0.650843 0.185696 0
0.628589 0.140398 0
0.504917 0.076007 0
0.50366 0.114367 0
0.548742 0.103779 0
0.378761 0.595487 0
0.380208 0.550214 0
0.466523 0.368506 0
0.783675 0.0347525 0
0.75 0 0
0.595056 0.120002 0
0.20263 0.384402 0
0.183224 0.431359 0
0.214741 0.417484 0
0.084015 0.29788 0
0.109114 0.342258 0
0.122552 0.29764 0
0.370334 0.82512 0
0.387646 0.864998 0
0.406461 0.829835 0
0.355164 0.351116 0
0.345461 0.389393 0
0.38124 0.369312 0
0.177444 0.641792 0
0.157107 0.604507 0
0.0286115 0.437949 0
0.0286115 0.487949 0
0 0.45 0
0.184917 0.578051 0
0.216794 0.552094 0
0.310754 0.412615 0
0.268135 0.41228 0
0.13984 0.408422 0
0.159382 0.370147 0
0.128108 0.380293 0
0.784378 0.167398 0
0.797145 0.21454 0
0.649424 0.382815 0
0.693196 0.390508 0
0.682209 0.350082 0
0.471401 0.267911 0
0.482069 0.229507 0
0.600319 0.323089 0
0.597356 0.371644 0
0.370215 0.185901 0
0.420304 0.369225 0
0.410601 0.407502 0
0.5 0.65 0
0.293615 0.645334 0
0.325979 0.66246 0
0.342624 0.703635 0
0.356309 0.666965 0
0.24951 0.782974 0
0.289009 0.779588 0
0.810542 0.362514 0
0.76432 0.338993 0
0.772204 0.381296 0
0.70942 0.286852 0
0.705431 0.332443 0
0.729969 0.312184 0
0.831184 0.106754 0
0.88081 0.111511 0
0.700748 0.430301 0
0.733534 0.397568 0
0.850584 0.326758 0
0.229212 0.186988 0
0.407496 0.52144 0
0.369845 0.506468 0
0.413594 0.760165 0
0.405497 0.719256 0
0.381051 0.749049 0
0.444574 0.794979 0
0.383872 0.640216 0
0.400517 0.681391 0
0.355233 0.0967005 0
0.42608 0.078274 0
0.379662 0.102076 0
0.055907 0.589708 0
0.0873405 0.613876 0
0.072862 0.718619 0
0.0918955 0.751177 0
0.105798 0.716711 0
0.234794 0.74574 0
0.213514 0.780928 0
0.143437 0.712141 0
0.72332 0.190623 0
0.744653 0.160332 0
0.788301 0.105758 0
0.748577 0.0986915 0
0.769527 0.134944 0
0.357928 0.894445 0
0.318709 0.915359 0
0.0802555 0.874244 0
0.121571 0.864297 0
0.32234 0.494638 0
0.349629 0.465863 0
0.384335 0.442641 0
0.336831 0.43081 0
0.608343 0.412069 0
0.527752 0.244716 0
0.858468 0.369061 0
0.627123 0.221367 0
0.382188 0.284319 0
0.345561 0.3138 0
0.437163 0.330315 0
0.746731 0.229689 0
0.149179 0.573985 0
0.720027 0.100984 0
0.810234 0.070501 0
0.861213 0.415162 0
0.827831 0.478851 0
0.85 0.5 0
0.082894 0.447232 0
0.0883665 0.492719 0
0.0578625 0.514002 0
0.300642 0.749391 0
0.351723 0.729569 0
0.321394 0.725064 0
0.416449 0.301103 0
0.462668 0.300384 0
0.837044 0.431259 0
</DataArray>
</Points>
<Cells>
<DataArray  type="UInt32"  Name="connectivity"  format="ascii">
1 138 139 
14 137 139 
45 137 138 
137 138 139 
4 141 142 
27 140 142 
65 140 141 
140 141 142 
0 144 145 
23 143 145 
43 143 144 
143 144 145 
4 141 147 
65 141 146 
105 146 147 
141 146 147 
5 149 150 
31 148 150 
47 148 149 
148 149 150 
2 152 153 
32 151 153 
44 151 152 
151 152 153 
2 152 155 
15 154 155 
44 152 154 
152 154 155 
15 154 157 
44 154 156 
101 156 157 
154 156 157 
6 159 160 
43 158 160 
93 158 159 
158 159 160 
15 162 163 
16 161 163 
71 161 162 
161 162 163 
6 159 165 
7 164 165 
93 159 164 
159 164 165 
[...]
<PointData  Vectors="u"> 
<DataArray  type="Float32"  Name="u"  NumberOfComponents="3" format="ascii">
 0.000000e+00 0.000000e+00 0.000000e+00
 0.000000e+00 0.000000e+00 0.000000e+00
 0.000000e+00 0.000000e+00 0.000000e+00
 0.000000e+00 0.000000e+00 0.000000e+00
 0.000000e+00 0.000000e+00 0.000000e+00
 0.000000e+00 0.000000e+00 0.000000e+00
 0.000000e+00 0.000000e+00 0.000000e+00
 0.000000e+00 0.000000e+00 0.000000e+00
 0.000000e+00 0.000000e+00 0.000000e+00
 0.000000e+00 0.000000e+00 0.000000e+00
 0.000000e+00 0.000000e+00 0.000000e+00
 0.000000e+00 0.000000e+00 0.000000e+00
 0.000000e+00 0.000000e+00 0.000000e+00
 0.000000e+00 0.000000e+00 0.000000e+00
 0.000000e+00 0.000000e+00 0.000000e+00
 0.000000e+00 0.000000e+00 0.000000e+00
 0.000000e+00 0.000000e+00 0.000000e+00
 0.000000e+00 0.000000e+00 0.000000e+00
 0.000000e+00 0.000000e+00 0.000000e+00
 0.000000e+00 0.000000e+00 0.000000e+00
 0.000000e+00 0.000000e+00 0.000000e+00
 0.000000e+00 0.000000e+00 0.000000e+00
 0.000000e+00 0.000000e+00 0.000000e+00
 0.000000e+00 0.000000e+00 0.000000e+00
 0.000000e+00 0.000000e+00 0.000000e+00
 0.000000e+00 0.000000e+00 0.000000e+00
 0.000000e+00 0.000000e+00 0.000000e+00
 0.000000e+00 0.000000e+00 0.000000e+00
 0.000000e+00 0.000000e+00 0.000000e+00
 0.000000e+00 0.000000e+00 0.000000e+00
 0.000000e+00 0.000000e+00 0.000000e+00
 0.000000e+00 0.000000e+00 0.000000e+00
 1.124966e-03 -3.543912e-01 0.000000e+00
 2.141791e-03 -4.433458e-01 0.000000e+00
 2.248570e-03 -4.518317e-01 0.000000e+00
 1.295737e-03 -3.723813e-01 0.000000e+00
 3.683581e-01 6.126896e-05 0.000000e+00
 4.496907e-01 -6.693816e-05 0.000000e+00
 4.460896e-01 2.977226e-04 0.000000e+00
 3.578834e-01 5.463702e-04 0.000000e+00
 2.130840e-01 -2.325554e-01 0.000000e+00
 4.087009e-02 -4.448687e-01 0.000000e+00
 4.627279e-01 -3.725694e-02 0.000000e+00
 1.105075e-02 -1.139596e-02 0.000000e+00
 4.228899e-04 -2.077358e-01 0.000000e+00
 2.874788e-01 4.194839e-04 0.000000e+00
 2.062206e-01 4.202301e-04 0.000000e+00
 9.811730e-04 -2.840042e-01 0.000000e+00
 8.564934e-02 -3.468670e-01 0.000000e+00
 4.285574e-01 -2.037580e-01 0.000000e+00
 4.557273e-01 7.163198e-04 0.000000e+00
 1.268646e-02 -4.524435e-01 0.000000e+00
 9.658773e-02 -1.040061e-01 0.000000e+00
 2.493851e-01 -7.085903e-02 0.000000e+00
 3.751492e-01 -4.028643e-02 0.000000e+00
 1.125139e-02 -3.793615e-01 0.000000e+00
 4.018754e-03 -4.222497e-01 0.000000e+00
 1.224431e-01 -4.573740e-01 0.000000e+00
 6.985663e-02 -2.297694e-01 0.000000e+00
 4.038672e-01 -4.262156e-03 0.000000e+00
 4.194760e-01 2.246430e-03 0.000000e+00
 2.553589e-02 -3.445908e-01 0.000000e+00
 2.444331e-02 -4.291102e-01 0.000000e+00
 4.283225e-01 8.725538e-04 0.000000e+00
 4.319426e-01 2.640013e-03 0.000000e+00
 4.131817e-01 -9.585014e-02 0.000000e+00
 1.386740e-01 -4.282481e-02 0.000000e+00
 3.549106e-01 -9.917507e-02 0.000000e+00
 2.681615e-03 -3.250295e-01 0.000000e+00
 1.167813e-02 -4.487956e-01 0.000000e+00
 2.554094e-02 -5.271340e-02 0.000000e+00
 3.288012e-03 -3.156533e-01 0.000000e+00
 2.633135e-01 -1.022465e-02 0.000000e+00
 2.681874e-01 -3.707739e-01 0.000000e+00
 3.519504e-01 -9.265691e-03 0.000000e+00
 2.678079e-01 -2.728516e-02 0.000000e+00
 3.816378e-02 -2.452865e-01 0.000000e+00
 5.056338e-03 -4.544996e-01 0.000000e+00
 8.285958e-02 -4.259052e-01 0.000000e+00
 3.567843e-02 -3.071285e-01 0.000000e+00
 1.379237e-01 -2.926115e-01 0.000000e+00
 3.665557e-02 -1.292311e-01 0.000000e+00
 4.522317e-01 -2.884770e-02 0.000000e+00
 4.281796e-01 -7.594718e-02 0.000000e+00
 2.866122e-01 -1.646905e-01 0.000000e+00
 5.837976e-02 -4.584273e-01 0.000000e+00
 2.275959e-02 -4.541304e-01 0.000000e+00
 4.601361e-01 -6.769574e-03 0.000000e+00
 4.546130e-01 1.075757e-03 0.000000e+00
 3.069423e-01 7.502866e-04 0.000000e+00
 3.459194e-01 4.512029e-03 0.000000e+00
 1.898964e-01 -1.362167e-01 0.000000e+00
 7.509457e-02 -4.256549e-01 0.000000e+00
 5.421674e-02 -2.939402e-02 0.000000e+00
 9.841400e-03 -3.985478e-01 0.000000e+00
 2.173851e-02 -3.513533e-01 0.000000e+00
 1.577689e-01 -1.926223e-02 0.000000e+00
 1.004666e-02 -3.073014e-01 0.000000e+00
 2.525444e-02 -4.044928e-01 0.000000e+00
 4.204903e-01 -2.795950e-04 0.000000e+00
 2.810518e-03 -4.202109e-01 0.000000e+00
 1.335647e-03 -3.066237e-01 0.000000e+00
 9.518994e-03 -4.177706e-01 0.000000e+00
 1.652179e-01 -3.930471e-01 0.000000e+00
 1.222472e-01 -1.957438e-01 0.000000e+00
 3.761545e-01 -3.361862e-01 0.000000e+00
 3.022167e-01 2.937268e-03 0.000000e+00
 4.649785e-01 -9.934170e-02 0.000000e+00
 4.417032e-01 3.165066e-03 0.000000e+00
 4.274448e-01 -3.498003e-02 0.000000e+00
 3.182333e-01 -2.680890e-01 0.000000e+00
 4.426478e-01 -1.573004e-02 0.000000e+00
 2.000938e-02 -1.498745e-01 0.000000e+00
 2.602140e-01 5.072355e-03 0.000000e+00
 5.496938e-02 -3.784044e-01 0.000000e+00
 3.114830e-01 -1.765989e-03 0.000000e+00
 4.541891e-02 -4.097135e-01 0.000000e+00
 8.177133e-02 -2.867153e-01 0.000000e+00
 3.544585e-03 -2.467882e-01 0.000000e+00
 3.018058e-01 1.663284e-03 0.000000e+00
 7.996821e-03 -3.001846e-01 0.000000e+00
 1.142940e-02 -1.810195e-01 0.000000e+00
 9.585353e-03 -2.085006e-01 0.000000e+00
 2.060667e-02 -4.492956e-01 0.000000e+00
 3.338113e-02 -4.557285e-01 0.000000e+00
 4.595951e-01 -1.463334e-02 0.000000e+00
 6.051965e-03 -2.116289e-01 0.000000e+00
 1.971358e-02 -4.352202e-01 0.000000e+00
 2.038132e-01 -2.334680e-02 0.000000e+00
 6.570915e-03 -4.325507e-01 0.000000e+00
 2.160589e-01 -4.516051e-01 0.000000e+00
 2.223664e-01 -3.170599e-01 0.000000e+00
 3.013902e-01 4.797594e-06 0.000000e+00
 3.667392e-01 -1.769915e-01 0.000000e+00
 4.479640e-01 -4.476389e-03 0.000000e+00
 1.987554e-01 1.306378e-03 0.000000e+00
 4.166973e-01 -1.339853e-01 0.000000e+00
 1.702347e-01 2.345067e-04 0.000000e+00
 1.699899e-01 9.846789e-05 0.000000e+00
 0.000000e+00 0.000000e+00 0.000000e+00
 2.370009e-01 -2.023462e-02 0.000000e+00
 3.082763e-01 -1.377465e-01 0.000000e+00
 0.000000e+00 0.000000e+00 0.000000e+00
 3.980242e-03 -8.517674e-03 0.000000e+00
 1.126260e-03 -1.112088e-03 0.000000e+00
 0.000000e+00 0.000000e+00 0.000000e+00
 4.253252e-01 -2.263265e-01 0.000000e+00
 3.239389e-01 -3.353154e-01 0.000000e+00
 4.162771e-04 -1.670273e-01 0.000000e+00
 3.511863e-04 -1.662727e-01 0.000000e+00
 0.000000e+00 0.000000e+00 0.000000e+00
 7.502383e-04 -2.942409e-01 0.000000e+00
 1.850298e-04 -1.160664e-01 0.000000e+00
 4.715844e-04 -2.281490e-01 0.000000e+00
 1.740530e-04 -1.154643e-01 0.000000e+00
 0.000000e+00 0.000000e+00 0.000000e+00
 7.657363e-04 -2.623406e-01 0.000000e+00
 4.940244e-04 -1.860008e-01 0.000000e+00
 2.905940e-02 -2.078463e-02 0.000000e+00
 2.405952e-02 -8.511065e-03 0.000000e+00
 8.953857e-03 -4.416733e-03 0.000000e+00
 1.270079e-03 -1.923693e-01 0.000000e+00
 8.272590e-04 -1.943780e-01 0.000000e+00
 0.000000e+00 0.000000e+00 0.000000e+00
 4.396688e-02 -1.006472e-02 0.000000e+00
 0.000000e+00 0.000000e+00 0.000000e+00
 0.000000e+00 0.000000e+00 0.000000e+00
 1.546269e-01 -3.044342e-02 0.000000e+00
 8.776446e-02 -6.328887e-03 0.000000e+00
 1.015856e-01 -1.362192e-02 0.000000e+00
 3.575632e-03 -2.838721e-01 0.000000e+00
 1.009559e-03 -1.432087e-01 0.000000e+00
 1.419442e-03 -1.399896e-01 0.000000e+00
 0.000000e+00 0.000000e+00 0.000000e+00
 4.218739e-02 -4.476152e-02 0.000000e+00
 1.895684e-02 -2.908670e-02 0.000000e+00
 7.667723e-02 -1.373821e-02 0.000000e+00
 0.000000e+00 0.000000e+00 0.000000e+00
 1.039898e-01 -5.761805e-03 0.000000e+00
 0.000000e+00 0.000000e+00 0.000000e+00
 1.800909e-01 -7.614874e-03 0.000000e+00
 1.630093e-01 -9.320241e-03 0.000000e+00
 0.000000e+00 0.000000e+00 0.000000e+00
 3.246840e-01 -6.023562e-02 0.000000e+00
 2.679766e-01 -4.739075e-02 0.000000e+00
 3.031590e-01 -8.801252e-02 0.000000e+00
 1.639249e-01 -2.270101e-03 0.000000e+00
 1.557627e-01 -3.544999e-03 0.000000e+00
 0.000000e+00 0.000000e+00 0.000000e+00
 3.121116e-01 -1.059608e-02 0.000000e+00
 2.289019e-01 -3.067987e-03 0.000000e+00
 2.585875e-01 9.034103e-04 0.000000e+00
 1.809961e-01 6.734183e-04 0.000000e+00
 1.141680e-01 2.419414e-04 0.000000e+00
 8.283825e-03 -2.634171e-01 0.000000e+00
 1.668141e-03 -1.229781e-01 0.000000e+00
 3.167528e-03 -1.896781e-01 0.000000e+00
 2.087696e-03 -1.174755e-01 0.000000e+00
 0.000000e+00 0.000000e+00 0.000000e+00
 1.780965e-01 -3.059544e-01 0.000000e+00
 2.202421e-01 -2.737673e-01 0.000000e+00
 1.752402e-01 -2.664491e-01 0.000000e+00
 2.750461e-02 -2.857504e-01 0.000000e+00
 8.468523e-02 -3.436408e-01 0.000000e+00
 0.000000e+00 0.000000e+00 0.000000e+00
 3.984160e-02 -3.863854e-01 0.000000e+00
 1.125932e-02 -2.295429e-01 0.000000e+00
 1.305449e-02 -3.242472e-01 0.000000e+00
 3.315123e-03 -1.802560e-01 0.000000e+00
 6.075516e-03 -2.117783e-01 0.000000e+00
 2.090857e-03 -1.741803e-01 0.000000e+00
 0.000000e+00 0.000000e+00 0.000000e+00
 2.560478e-03 -4.348839e-01 0.000000e+00
 1.903189e-03 -3.966467e-01 0.000000e+00
 1.714417e-03 -4.159537e-01 0.000000e+00
 2.551625e-01 1.579976e-03 0.000000e+00
 1.100801e-01 4.236150e-04 0.000000e+00
 2.957275e-01 5.180666e-04 0.000000e+00
 1.147213e-01 1.212322e-04 0.000000e+00
 2.297909e-01 2.457336e-04 0.000000e+00
 3.350114e-01 -4.681364e-03 0.000000e+00
 1.920913e-01 -1.740566e-04 0.000000e+00
 2.334991e-01 -1.479563e-03 0.000000e+00
 3.077734e-01 5.046493e-03 0.000000e+00
 1.495394e-01 1.965347e-03 0.000000e+00
 2.156797e-01 2.386073e-03 0.000000e+00
 3.068615e-01 -6.711870e-04 0.000000e+00
 1.815546e-01 -2.090870e-06 0.000000e+00
 0.000000e+00 0.000000e+00 0.000000e+00
 1.452100e-01 2.714738e-03 0.000000e+00
 0.000000e+00 0.000000e+00 0.000000e+00
 3.273107e-03 -1.134643e-01 0.000000e+00
 2.759389e-03 -1.218097e-01 0.000000e+00
 0.000000e+00 0.000000e+00 0.000000e+00
 2.080635e-02 -2.694416e-01 0.000000e+00
 1.788337e-02 -2.870323e-01 0.000000e+00
 3.064913e-02 -3.275990e-01 0.000000e+00
 7.977057e-04 -1.977000e-01 0.000000e+00
 1.419557e-03 -2.000924e-01 0.000000e+00
 0.000000e+00 0.000000e+00 0.000000e+00
 2.910425e-02 -1.982307e-01 0.000000e+00
 5.990221e-03 -9.373260e-02 0.000000e+00
 1.192923e-02 -1.496683e-01 0.000000e+00
 4.493434e-01 9.142238e-04 0.000000e+00
 4.533572e-01 3.802349e-04 0.000000e+00
 4.418620e-01 3.993532e-04 0.000000e+00
 1.681656e-01 3.785118e-03 0.000000e+00
 1.688469e-01 4.007891e-03 0.000000e+00
 0.000000e+00 0.000000e+00 0.000000e+00
 6.147850e-03 -7.910653e-02 0.000000e+00
 0.000000e+00 0.000000e+00 0.000000e+00
 1.099296e-02 -6.672024e-02 0.000000e+00
 1.086438e-02 -8.657464e-02 0.000000e+00
 0.000000e+00 0.000000e+00 0.000000e+00
 2.895420e-03 -4.536886e-01 0.000000e+00
 2.915477e-03 -4.519420e-01 0.000000e+00
 2.330666e-03 -4.537493e-01 0.000000e+00
 1.733085e-03 -3.997812e-01 0.000000e+00
 2.336750e-03 -4.416798e-01 0.000000e+00
 1.873034e-03 -4.311882e-01 0.000000e+00
 3.329942e-01 2.415000e-04 0.000000e+00
 2.400710e-01 5.685251e-05 0.000000e+00
 1.850947e-01 3.574765e-04 0.000000e+00
 1.856812e-01 3.850672e-04 0.000000e+00
 0.000000e+00 0.000000e+00 0.000000e+00
 4.568715e-01 -1.250156e-02 0.000000e+00
 4.539857e-01 -2.542824e-02 0.000000e+00
 4.629495e-01 -1.836697e-02 0.000000e+00
 4.523156e-01 6.582113e-04 0.000000e+00
 4.541128e-01 3.381607e-05 0.000000e+00
 1.895946e-03 -3.715197e-01 0.000000e+00
 1.116670e-03 -3.340393e-01 0.000000e+00
 6.067634e-04 -2.422883e-01 0.000000e+00
 2.370305e-01 -1.521039e-01 0.000000e+00
 2.028843e-01 -1.828132e-01 0.000000e+00
 2.520198e-01 -2.006618e-01 0.000000e+00
 1.568134e-01 -1.685545e-01 0.000000e+00
 1.659527e-01 -2.155794e-01 0.000000e+00
 6.202981e-02 -4.191774e-01 0.000000e+00
 4.446278e-02 -4.301238e-01 0.000000e+00
 5.912747e-02 -4.385237e-01 0.000000e+00
 3.816095e-01 6.881918e-04 0.000000e+00
 4.049461e-01 4.098358e-04 0.000000e+00
 4.572307e-01 -2.094682e-02 0.000000e+00
 4.650887e-01 -2.625994e-02 0.000000e+00
 4.670670e-01 -3.615499e-02 0.000000e+00
 4.044946e-01 1.401056e-03 0.000000e+00
 4.401893e-01 1.245973e-03 0.000000e+00
 4.199635e-01 5.613152e-04 0.000000e+00
 2.791445e-02 -4.554660e-01 0.000000e+00
 3.831914e-02 -4.540594e-01 0.000000e+00
 3.096917e-02 -4.510906e-01 0.000000e+00
 3.011247e-03 -3.841871e-01 0.000000e+00
 1.596797e-03 -3.052010e-01 0.000000e+00
 4.458614e-01 -1.217565e-01 0.000000e+00
 4.247504e-01 -1.664599e-01 0.000000e+00
 4.537392e-01 -1.475864e-01 0.000000e+00
 7.249442e-03 -2.219740e-02 0.000000e+00
 7.935936e-03 -3.858343e-02 0.000000e+00
 0.000000e+00 0.000000e+00 0.000000e+00
 4.272387e-01 -1.877083e-06 0.000000e+00
 7.638253e-02 -1.697471e-01 0.000000e+00
 1.103503e-01 -1.488661e-01 0.000000e+00
 6.556570e-02 -1.248290e-01 0.000000e+00
 4.487542e-01 -9.021059e-02 0.000000e+00
 4.655563e-01 -6.216321e-02 0.000000e+00
 4.511428e-01 -5.777690e-02 0.000000e+00
 3.951015e-01 -9.117236e-02 0.000000e+00
 4.046686e-01 -5.840867e-02 0.000000e+00
 3.707321e-01 -6.658479e-02 0.000000e+00
 2.585378e-03 -3.818504e-01 0.000000e+00
 1.132114e-03 -3.326322e-01 0.000000e+00
 6.129430e-03 -4.499330e-01 0.000000e+00
 9.367194e-03 -4.454364e-01 0.000000e+00
 8.351683e-03 -4.539538e-01 0.000000e+00
 2.292936e-02 -4.222546e-01 0.000000e+00
 2.874757e-02 -4.409353e-01 0.000000e+00
 3.357699e-02 -4.291401e-01 0.000000e+00
 3.785805e-02 -2.775350e-01 0.000000e+00
 5.802772e-02 -3.341357e-01 0.000000e+00
 6.230501e-02 -3.029925e-01 0.000000e+00
 1.189355e-01 -4.150120e-01 0.000000e+00
 1.227366e-01 -3.709767e-01 0.000000e+00
 8.912613e-02 -3.904073e-01 0.000000e+00
 2.986677e-01 -4.116888e-01 0.000000e+00
 2.130424e-01 -4.197894e-01 0.000000e+00
 2.974879e-01 6.602548e-04 0.000000e+00
 0.000000e+00 0.000000e+00 0.000000e+00
 3.889422e-01 2.512425e-03 0.000000e+00
 3.326421e-01 1.060188e-03 0.000000e+00
 4.247816e-01 8.196545e-04 0.000000e+00
 4.471429e-01 -2.822975e-04 0.000000e+00
 4.484777e-01 9.202590e-04 0.000000e+00
 4.626261e-02 -3.470760e-01 0.000000e+00
 6.947862e-02 -3.653225e-01 0.000000e+00
 1.395640e-02 -4.281460e-01 0.000000e+00
 1.573106e-02 -4.145747e-01 0.000000e+00
 1.061443e-02 -4.011533e-01 0.000000e+00
 7.538223e-02 -4.515932e-01 0.000000e+00
 8.550333e-02 -4.609622e-01 0.000000e+00
 1.029462e-01 -4.424936e-01 0.000000e+00
 4.497536e-01 1.808532e-03 0.000000e+00
 4.550855e-01 1.349750e-03 0.000000e+00
 4.514498e-01 2.279455e-03 0.000000e+00
 4.111492e-01 -1.407901e-02 0.000000e+00
 4.280947e-01 -9.154156e-03 0.000000e+00
 3.814450e-01 -6.833476e-03 0.000000e+00
 4.538896e-01 -3.840812e-04 0.000000e+00
 4.540591e-01 1.569536e-03 0.000000e+00
 4.576285e-01 -1.330945e-03 0.000000e+00
 3.262223e-01 -1.733477e-01 0.000000e+00
 3.624203e-01 -1.351917e-01 0.000000e+00
 3.247946e-01 -1.325251e-01 0.000000e+00
 4.641505e-01 -1.094440e-01 0.000000e+00
 4.551367e-01 -1.756155e-01 0.000000e+00
 1.712726e-01 -8.705681e-02 0.000000e+00
 2.242986e-01 -1.035935e-01 0.000000e+00
 1.939534e-01 -5.791266e-02 0.000000e+00
 1.808006e-01 -2.149565e-02 0.000000e+00
 1.289316e-01 -7.011629e-03 0.000000e+00
 1.321760e-01 -2.438202e-01 0.000000e+00
 9.514481e-02 -2.170554e-01 0.000000e+00
 1.028341e-01 -2.639416e-01 0.000000e+00
 4.294190e-01 -5.281596e-02 0.000000e+00
 4.042101e-01 -3.925599e-02 0.000000e+00
 8.028398e-03 -4.532205e-01 0.000000e+00
 1.267875e-02 -4.544411e-01 0.000000e+00
 1.522093e-02 -4.320234e-01 0.000000e+00
 1.635359e-02 -4.510532e-01 0.000000e+00
 1.219548e-02 -4.376906e-01 0.000000e+00
 1.749229e-02 -3.680951e-01 0.000000e+00
 2.629416e-02 -3.784605e-01 0.000000e+00
 1.664828e-02 -3.306757e-01 0.000000e+00
 4.891912e-03 -4.475075e-01 0.000000e+00
 9.397838e-02 -3.719890e-02 0.000000e+00
 7.839074e-02 -6.384098e-02 0.000000e+00
 1.242333e-01 -7.439586e-02 0.000000e+00
 3.150478e-02 -8.896935e-02 0.000000e+00
 5.752613e-02 -8.114866e-02 0.000000e+00
 6.258705e-03 -3.810006e-01 0.000000e+00
 6.475750e-03 -3.533472e-01 0.000000e+00
 1.093553e-02 -4.374795e-01 0.000000e+00
 6.389254e-03 -4.203948e-01 0.000000e+00
 7.236727e-03 -4.394690e-01 0.000000e+00
 4.366694e-01 -2.445493e-02 0.000000e+00
 4.015658e-01 -2.029822e-02 0.000000e+00
 2.709037e-01 -1.775680e-02 0.000000e+00
 3.273288e-01 -3.601412e-02 0.000000e+00
 3.347613e-01 -2.363093e-02 0.000000e+00
 6.865749e-02 -4.523983e-01 0.000000e+00
 1.083202e-01 -4.626477e-01 0.000000e+00
 4.136490e-01 -2.660840e-01 0.000000e+00
 1.819205e-01 3.159339e-04 0.000000e+00
 0.000000e+00 0.000000e+00 0.000000e+00
 3.716551e-01 -2.138506e-02 0.000000e+00
 1.081221e-01 -2.924115e-01 0.000000e+00
 8.470960e-02 -3.175522e-01 0.000000e+00
 1.115778e-01 -3.240498e-01 0.000000e+00
 2.784610e-02 -1.436553e-01 0.000000e+00
 4.246125e-02 -1.984039e-01 0.000000e+00
 5.339350e-02 -1.794284e-01 0.000000e+00
 8.313013e-03 -4.183342e-01 0.000000e+00
 4.738031e-03 -3.952115e-01 0.000000e+00
 5.351395e-03 -3.659603e-01 0.000000e+00
 2.698456e-01 -2.977814e-01 0.000000e+00
 2.460393e-01 -3.437332e-01 0.000000e+00
 3.000696e-01 -3.204398e-01 0.000000e+00
 3.425685e-02 -4.085018e-01 0.000000e+00
 3.597706e-02 -3.835738e-01 0.000000e+00
 3.941617e-03 -9.345418e-02 0.000000e+00
 3.491928e-03 -1.038890e-01 0.000000e+00
 0.000000e+00 0.000000e+00 0.000000e+00
 5.060106e-02 -3.954090e-01 0.000000e+00
 6.972587e-02 -4.041981e-01 0.000000e+00
 1.961856e-01 -3.587470e-01 0.000000e+00
 1.563753e-01 -3.422664e-01 0.000000e+00
 5.891329e-02 -2.712873e-01 0.000000e+00
 7.661273e-02 -2.586084e-01 0.000000e+00
 5.305418e-02 -2.420553e-01 0.000000e+00
 4.373712e-01 -1.891623e-03 0.000000e+00
 4.538671e-01 -1.273873e-03 0.000000e+00
 4.002692e-01 -1.016183e-02 0.000000e+00
 3.761273e-01 2.889949e-03 0.000000e+00
 4.346515e-01 -7.270844e-03 0.000000e+00
 3.939219e-01 -1.568025e-01 0.000000e+00
 3.857512e-01 -1.182228e-01 0.000000e+00
 4.685102e-01 -6.271005e-02 0.000000e+00
 4.387411e-01 -5.407415e-02 0.000000e+00
 2.718338e-01 -1.151194e-01 0.000000e+00
 3.536219e-01 -3.086953e-01 0.000000e+00
 3.205007e-01 -3.683627e-01 0.000000e+00
 0.000000e+00 0.000000e+00 0.000000e+00
 5.105939e-02 -4.547975e-01 0.000000e+00
 4.386696e-02 -4.565638e-01 0.000000e+00
 2.990392e-02 -4.490051e-01 0.000000e+00
 3.872090e-02 -4.481244e-01 0.000000e+00
 1.666049e-02 -4.520321e-01 0.000000e+00
 1.736224e-02 -4.548604e-01 0.000000e+00
 4.092214e-01 4.902358e-03 0.000000e+00
 4.327188e-01 3.134872e-03 0.000000e+00
 3.861432e-01 5.787803e-03 0.000000e+00
 4.606105e-01 -9.928130e-03 0.000000e+00
 4.447966e-01 -4.647464e-03 0.000000e+00
 4.515399e-01 -3.278308e-03 0.000000e+00
 3.795930e-01 6.372864e-04 0.000000e+00
 3.867948e-01 9.033567e-04 0.000000e+00
 2.795476e-01 5.820559e-03 0.000000e+00
 3.591799e-01 5.957966e-03 0.000000e+00
 4.364738e-01 3.555586e-03 0.000000e+00
 1.418107e-01 -1.219837e-01 0.000000e+00
 1.430819e-01 -4.597664e-01 0.000000e+00
 1.609729e-01 -4.589218e-01 0.000000e+00
 9.527624e-03 -3.591080e-01 0.000000e+00
 1.597387e-02 -3.827154e-01 0.000000e+00
 1.576560e-02 -4.141316e-01 0.000000e+00
 3.694342e-03 -2.695753e-01 0.000000e+00
 4.269817e-02 -4.345224e-01 0.000000e+00
 2.470348e-02 -4.006056e-01 0.000000e+00
 2.131262e-01 -4.299215e-02 0.000000e+00
 2.360837e-01 -2.581450e-02 0.000000e+00
 2.362844e-01 -4.496759e-02 0.000000e+00
 7.743891e-03 -2.111686e-01 0.000000e+00
 1.446007e-02 -2.929535e-01 0.000000e+00
 6.194677e-03 -2.808980e-01 0.000000e+00
 7.193902e-03 -3.275122e-01 0.000000e+00
 1.115316e-02 -3.478266e-01 0.000000e+00
 2.193139e-02 -4.475607e-01 0.000000e+00
 1.557632e-02 -4.433013e-01 0.000000e+00
 1.724636e-02 -3.947605e-01 0.000000e+00
 4.460348e-01 -9.105764e-03 0.000000e+00
 4.319242e-01 -4.912973e-03 0.000000e+00
 3.774671e-01 -2.423616e-04 0.000000e+00
 3.645977e-01 -1.398754e-03 0.000000e+00
 4.131333e-01 -1.882995e-03 0.000000e+00
 4.348399e-03 -4.265988e-01 0.000000e+00
 4.023791e-03 -4.475860e-01 0.000000e+00
 2.107913e-03 -3.116357e-01 0.000000e+00
 4.130524e-03 -3.840026e-01 0.000000e+00
 1.501658e-01 -4.321253e-01 0.000000e+00
 1.951017e-01 -4.260776e-01 0.000000e+00
 2.517784e-01 -4.157432e-01 0.000000e+00
 2.128770e-01 -3.873958e-01 0.000000e+00
 3.529717e-01 -2.247451e-02 0.000000e+00
 4.244952e-01 -1.024118e-01 0.000000e+00
 4.014502e-01 3.781518e-03 0.000000e+00
 4.485919e-01 -3.885696e-02 0.000000e+00
 3.039531e-01 -2.135439e-01 0.000000e+00
 2.627448e-01 -2.524676e-01 0.000000e+00