<?xml version="1.0"?>
<VTKFile type="UnstructuredGrid"  version="0.1"  >
<UnstructuredGrid>
<Piece  NumberOfPoints="505" NumberOfCells="928">
<Points>
<DataArray  type="Float32"  NumberOfComponents="3"  format="ascii">
0 0 0
1 0 0
0 1 0
1 0.5 0
0.5 0.5 0
0.5 1 0
0.1 0 0
0.2 0 0
0.3 0 0
0.4 0 0
0.5 0 0
0.6 0 0
0.7 0 0
0.8 0 0
0.9 0 0
0 0.9 0
0 0.8 0
0 0.7 0
0 0.6 0
0 0.5 0
0 0.4 0
0 0.3 0
0 0.2 0
0 0.1 0
0.9 0.5 0
0.8 0.5 0
0.7 0.5 0
0.6 0.5 0
0.5 0.6 0
0.5 0.7 0
0.5 0.8 0
0.5 0.9 0
0.1 1 0
0.2 1 0
0.3 1 0
0.4 1 0
1 0.1 0
1 0.2 0
1 0.3 0
1 0.4 0
0.300178 0.296564 0
0.247566 0.664879 0
0.639694 0.259804 0
0.06564 0.06472 0
0.04439 0.954144 0
0.932418 0.064715 0
0.951013 0.456419 0
0.437622 0.939659 0
0.195334 0.464441 0
0.483382 0.329596 0
0.834786 0.236295 0
0.307228 0.81139 0
0.178229 0.173372 0
0.366998 0.134199 0
0.547485 0.14214 0
0.124832 0.74927 0
0.160163 0.896658 0
0.342556 0.535243 0
0.147651 0.342018 0
0.729803 0.127878 0
0.725981 0.357775 0
0.121369 0.600441 0
0.372954 0.70814 0
0.908503 0.151525 0
0.89851 0.333305 0
0.556275 0.400898 0
0.259184 0.092178 0
0.46329 0.194362 0
0.423773 0.869712 0
0.22823 0.818162 0
0.081292 0.144905 0
0.082979 0.831935 0
0.549999 0.065419 0
0.371537 0.407588 0
0.642628 0.097865 0
0.459835 0.086595 0
0.108565 0.418567 0
0.273082 0.902112 0
0.256598 0.556659 0
0.11951 0.509541 0
0.234147 0.370527 0
0.097453 0.253261 0
0.638438 0.342389 0
0.554656 0.224779 0
0.373432 0.237603 0
0.339663 0.62579 0
0.27079 0.747786 0
0.733958 0.266592 0
0.928527 0.244458 0
0.853116 0.071497 0
0.818426 0.404817 0
0.280194 0.200604 0
0.417859 0.565185 0
0.147241 0.079056 0
0.389149 0.789957 0
0.42808 0.654642 0
0.343469 0.059202 0
0.086765 0.684153 0
0.162043 0.675011 0
0.809252 0.14201 0
0.364337 0.928607 0
0.077532 0.916553 0
0.159064 0.807906 0
0.302124 0.454032 0
0.205909 0.272176 0
0.449664 0.407415 0
0.66041 0.423241 0
0.562201 0.303789 0
0.802658 0.320211 0
0.614551 0.182931 0
0.390944 0.331035 0
0.687136 0.18846 0
0.070577 0.342498 0
0.741087 0.437361 0
0.176989 0.547528 0
0.710251 0.07409 0
0.192845 0.608574 0
0.171114 0.398277 0
0.058959 0.753084 0
0.904 0.425508 0
0.438039 0.730373 0
0.057223 0.475897 0
0.058502 0.552106 0
0.330493 0.750997 0
0.312295 0.699131 0
0.684882 0.307111 0
0.053312 0.627311 0
0.198798 0.743695 0
0.392326 0.069953 0
0.351519 0.860283 0
0.397134 0.477694 0
0.319385 0.371198 0
0.767351 0.069505 0
0.441954 0.271171 0
0.759504 0.192785 0
0.855661 0.457701 0
0.500847 0.264652 0
0.916209 0.0323575 0
0.966209 0.0323575 0
0.95 0 0
0.578137 0.450449 0
0.528137 0.450449 0
0.55 0.5 0
0.03282 0.08236 0
0.03282 0.03236 0
0 0.05 0
0.502969 0.404157 0
0.474832 0.453708 0
0.468811 0.91983 0
0.468811 0.96983 0
0.5 0.95 0
0.072195 0.977072 0
0.022195 0.977072 0
0.05 1 0
0.022195 0.927072 0
0 0.95 0
0.060961 0.935348 0
0.038766 0.908276 0
0.106441 0.071888 0
0.123621 0.039528 0
0.08282 0.03236 0
0.0414895 0.815967 0
0.0414895 0.865968 0
0 0.85 0
0.173621 0.039528 0
0.15 0 0
0.05 0 0
0.301327 0.07569 0
0.321735 0.029601 0
0.279592 0.046089 0
0.070969 0.792509 0
0.0294795 0.776542 0
0.0294795 0.726542 0
0 0.75 0
0.114267 0.111981 0
0.073466 0.104813 0
0.229592 0.046089 0
0.25 0 0
0.371735 0.029601 0
0.35 0 0
0.479917 0.0432975 0
0.429918 0.0432975 0
0.45 0 0
0.461562 0.140479 0
0.413416 0.110397 0
0.415144 0.16428 0
0.574999 0.0327095 0
0.525 0.0327095 0
0.55 0 0
0.596313 0.081642 0
0.621314 0.0489325 0
0.927507 0.440964 0
0.902 0.462754 0
0.925507 0.47821 0
0.0700385 0.655732 0
0.026656 0.663655 0
0.0433825 0.692076 0
0.026656 0.613655 0
0 0.65 0
0.276766 0.370862 0
0.309781 0.333881 0
0.267162 0.333545 0
0.458929 0.582593 0
0.458929 0.532593 0
0.5 0.55 0
0.422969 0.609913 0
0.46404 0.627321 0
0.43306 0.692508 0
0.46902 0.715186 0
0.46404 0.677321 0
0.46902 0.765186 0
0.5 0.75 0
0.180082 0.948329 0
0.130082 0.948329 0
0.15 1 0
0.87983 0.441605 0
0.87783 0.478851 0
0.975507 0.42821 0
0.975507 0.47821 0
1 0.45 0
0.676439 0.0859775 0
0.705125 0.037045 0
0.671314 0.0489325 0
0.779756 0.421089 0
0.770544 0.46868 0
0.809213 0.452408 0
0.738801 0.0717975 0
0.733675 0.0347525 0
0.95 0.5 0
0.720544 0.46868 0
0.75 0.5 0
0.029251 0.526053 0
0.029251 0.576053 0
0 0.55 0
0.089006 0.530824 0
0.0899355 0.576273 0
0.12044 0.554991 0
0.461886 0.884856 0
0.461886 0.834856 0
0.5 0.85 0
0.089571 0.380533 0
0.0352885 0.371249 0
0.0542825 0.409284 0
0.918515 0.197991 0
0.964263 0.222229 0
0.954252 0.175762 0
0.630205 0.46162 0
0.680205 0.46162 0
0.65 0.5 0
0.0352885 0.321249 0
0 0.35 0
0.0487265 0.226631 0
0.0487265 0.276631 0
0 0.25 0
0.286541 0.951056 0
0.236541 0.951056 0
0.25 1 0
0.382169 0.964303 0
0.332168 0.964303 0
0.35 1 0
0.966209 0.0823575 0
1 0.05 0
0.876558 0.0357485 0
0.826558 0.0357485 0
0.85 0 0
0.710547 0.227526 0
0.663415 0.224132 0
0.686826 0.263198 0
0.964263 0.272229 0
1 0.25 0
0.40098 0.934133 0
0.418811 0.96983 0
0.45 1 0
0.326813 0.219104 0
0.290186 0.248584 0
0.336805 0.267084 0
0.243052 0.23639 0
0.253043 0.28437 0
0.224721 0.582616 0
0.220205 0.636726 0
0.252082 0.610769 0
0.92046 0.10812 0
0.954252 0.125762 0
0.66166 0.32475 0
0.662288 0.283458 0
0.639066 0.301096 0
0.949255 0.366653 0
0.949255 0.316653 0
1 0.35 0
0.291542 0.723459 0
0.27993 0.682005 0
0.259178 0.706333 0
0.394055 0.89916 0
0.430698 0.904686 0
0.531524 0.28422 0
0.492115 0.297124 0
0.522791 0.316692 0
0.040646 0.122453 0
0.040646 0.172453 0
0 0.15 0
1 0.15 0
0.151681 0.262718 0
0.192069 0.222774 0
0.137841 0.213317 0
0.558428 0.264284 0
0.600947 0.281797 0
0.597175 0.242291 0
0.508973 0.20957 0
0.551071 0.183459 0
0.505387 0.168251 0
0.118847 0.906605 0
0.088766 0.958276 0
0.3123 0.881198 0
0.329373 0.835836 0
0.290155 0.856751 0
0.18042 0.709353 0
0.223182 0.704287 0
0.204805 0.669945 0
0.114037 0.464054 0
0.157422 0.486991 0
0.15195 0.441504 0
0.279361 0.505346 0
0.248729 0.459236 0
0.225966 0.51055 0
0.423399 0.442555 0
0.448567 0.488847 0
0.892767 0.068106 0
0.65 0 0
0.901255 0.379406 0
0.952 0.412754 0
0.858877 0.146767 0
0.822019 0.189153 0
0.871644 0.19391 0
0.14825 0.528535 0
0.186162 0.505985 0
0.178931 0.775801 0
0.161815 0.746482 0
0.141948 0.778588 0
0.29813 0.591225 0
0.34111 0.580516 0
0.299577 0.545951 0
0.913519 0.288882 0
0.881657 0.240376 0
0.866648 0.2848 0
0.664882 0.143162 0
0.708469 0.158169 0
0.686215 0.112871 0
0.768308 0.293401 0
0.818722 0.278253 0
0.784372 0.251443 0
0.407693 0.254387 0
0.452622 0.232766 0
0.418361 0.215983 0
0.559238 0.352343 0
0.519829 0.365247 0
0.269689 0.146391 0
0.323596 0.167402 0
0.313091 0.113188 0
0.367897 0.0645775 0
0.396163 0.0349765 0
0.220028 0.321352 0
0.17678 0.307097 0
0.190899 0.356272 0
0.584604 0.203855 0
0.581018 0.162535 0
0.250656 0.860137 0
0.267729 0.814776 0
0.359821 0.770477 0
0.31886 0.781193 0
0.348189 0.800674 0
0.124404 0.679582 0
0.141706 0.637726 0
0.104067 0.642297 0
0.216622 0.899385 0
0.203213 0.085617 0
0.162735 0.126214 0
0.218707 0.132775 0
0.0893725 0.199083 0
0.129761 0.159139 0
0.121022 0.819921 0
0.103905 0.790602 0
0.193647 0.813034 0
0.159614 0.852282 0
0.194196 0.85741 0
0.650843 0.185696 0
0.628589 0.140398 0
0.504917 0.076007 0
0.50366 0.114367 0
0.548742 0.103779 0
0.378761 0.595487 0
0.380208 0.550214 0
0.466523 0.368506 0
0.783675 0.0347525 0
0.75 0 0
0.595056 0.120002 0
0.20263 0.384402 0
0.183224 0.431359 0
0.214741 0.417484 0
0.084015 0.29788 0
0.109114 0.342258 0
0.122552 0.29764 0
0.370334 0.82512 0
0.387646 0.864998 0
0.406461 0.829835 0
0.355164 0.351116 0
0.345461 0.389393 0
0.38124 0.369312 0
0.177444 0.641792 0
0.157107 0.604507 0
0.0286115 0.437949 0
0.0286115 0.487949 0
0 0.45 0
0.184917 0.578051 0
0.216794 0.552094 0
0.310754 0.412615 0
0.268135 0.41228 0
0.13984 0.408422 0
0.159382 0.370147 0
0.128108 0.380293 0
0.784378 0.167398 0
0.797145 0.21454 0
0.649424 0.382815 0
0.693196 0.390508 0
0.682209 0.350082 0
0.471401 0.267911 0
0.482069 0.229507 0
0.600319 0.323089 0
0.597356 0.371644 0
0.370215 0.185901 0
0.420304 0.369225 0
0.410601 0.407502 0
0.5 0.65 0
0.293615 0.645334 0
0.325979 0.66246 0
0.342624 0.703635 0
0.356309 0.666965 0
0.24951 0.782974 0
0.289009 0.779588 0
0.810542 0.362514 0
0.76432 0.338993 0
0.772204 0.381296 0
0.70942 0.286852 0
0.705431 0.332443 0
0.729969 0.312184 0
0.831184 0.106754 0
0.88081 0.111511 0
0.700748 0.430301 0
0.733534 0.397568 0
0.850584 0.326758 0
0.229212 0.186988 0
0.407496 0.52144 0
0.369845 0.506468 0
0.413594 0.760165 0
0.405497 0.719256 0
0.381051 0.749049 0
0.444574 0.794979 0
0.383872 0.640216 0
0.400517 0.681391 0
0.355233 0.0967005 0
0.42608 0.078274 0
0.379662 0.102076 0
0.055907 0.589708 0
0.0873405 0.613876 0
0.072862 0.718619 0
0.0918955 0.751177 0
0.105798 0.716711 0
0.234794 0.74574 0
0.213514 0.780928 0
0.143437 0.712141 0
0.72332 0.190623 0
0.744653 0.160332 0
0.788301 0.105758 0
0.748577 0.0986915 0
0.769527 0.134944 0
0.357928 0.894445 0
0.318709 0.915359 0
0.0802555 0.874244 0
0.121571 0.864297 0
0.32234 0.494638 0
0.349629 0.465863 0
0.384335 0.442641 0
0.336831 0.43081 0
0.608343 0.412069 0
0.527752 0.244716 0
0.858468 0.369061 0
0.627123 0.221367 0
0.382188 0.284319 0
0.345561 0.3138 0
0.437163 0.330315 0
0.746731 0.229689 0
0.149179 0.573985 0
0.720027 0.100984 0
0.810234 0.070501 0
0.861213 0.415162 0
0.827831 0.478851 0
0.85 0.5 0
0.082894 0.447232 0
0.0883665 0.492719 0
0.0578625 0.514002 0
0.300642 0.749391 0
0.351723 0.729569 0
0.321394 0.725064 0
0.416449 0.301103 0
0.462668 0.300384 0
0.837044 0.431259 0
</DataArray>
</Points>
<Cells>
<DataArray  type="UInt32"  Name="connectivity"  format="ascii">
1 138 139 
14 137 139 
45 137 138 
137 138 139 
4 141 142 
27 140 142 
65 140 141 
140 141 142 
0 144 145 
23 143 145 
43 143 144 
143 144 145 
4 141 147 
65 141 146 
105 146 147 
141 146 147 
5 149 150 
31 148 150 
47 148 149 
148 149 150 
2 152 153 
32 151 153 
44 151 152 
151 152 153 
2 152 155 
15 154 155 
44 152 154 
152 154 155 
15 154 157 
44 154 156 
101 156 157 
154 156 157 
6 159 160 
43 158 160 
93 158 159 
158 159 160 
15 162 163 
16 161 163 
71 161 162 
161 162 163 
6 159 165 
7 164 165 
93 159 164 
159 164 165 
[...]
<PointData  Vectors="u"> 
<DataArray  type="Float32"  Name="u"  NumberOfComponents="3" format="ascii">
 0.000000e+00 0.000000e+00 0.000000e+00
 0.000000e+00 0.000000e+00 0.000000e+00
 0.000000e+00 0.000000e+00 0.000000e+00
 0.000000e+00 0.000000e+00 0.000000e+00
 0.000000e+00 0.000000e+00 0.000000e+00
 0.000000e+00 0.000000e+00 0.000000e+00
 0.000000e+00 0.000000e+00 0.000000e+00
 0.000000e+00 0.000000e+00 0.000000e+00
 0.000000e+00 0.000000e+00 0.000000e+00
 0.000000e+00 0.000000e+00 0.000000e+00
 0.000000e+00 0.000000e+00 0.000000e+00
 0.000000e+00 0.000000e+00 0.000000e+00
 0.000000e+00 0.000000e+00 0.000000e+00
 0.000000e+00 0.000000e+00 0.000000e+00
 0.000000e+00 0.000000e+00 0.000000e+00
 0.000000e+00 0.000000e+00 0.000000e+00
 0.000000e+00 0.000000e+00 0.000000e+00
 0.000000e+00 0.000000e+00 0.000000e+00
 0.000000e+00 0.000000e+00 0.000000e+00
 0.000000e+00 0.000000e+00 0.000000e+00
 0.000000e+00 0.000000e+00 0.000000e+00
 0.000000e+00 0.000000e+00 0.000000e+00
 0.000000e+00 0.000000e+00 0.000000e+00
 0.000000e+00 0.000000e+00 0.000000e+00
 0.000000e+00 0.000000e+00 0.000000e+00
 0.000000e+00 0.000000e+00 0.000000e+00
 0.000000e+00 0.000000e+00 0.000000e+00
 0.000000e+00 0.000000e+00 0.000000e+00
 0.000000e+00 0.000000e+00 0.000000e+00
 0.000000e+00 0.000000e+00 0.000000e+00
 0.000000e+00 0.000000e+00 0.000000e+00
 0.000000e+00 0.000000e+00 0.000000e+00
 -8.635554e-05 1.640334e-01 0.000000e+00
 -2.481962e-04 1.514125e-01 0.000000e+00
 -2.187982e-04 1.497623e-01 0.000000e+00
 -2.465809e-05 1.612667e-01 0.000000e+00
 -1.636580e-01 7.610115e-03 0.000000e+00
 -1.499517e-01 1.558866e-02 0.000000e+00
 -1.508161e-01 1.655782e-02 0.000000e+00
 -1.624610e-01 8.724341e-03 0.000000e+00
 -7.204476e-02 4.496385e-02 0.000000e+00
 -1.345886e-02 1.437281e-01 0.000000e+00
 -1.405204e-01 3.038571e-02 0.000000e+00
 -8.131900e-03 7.855470e-03 0.000000e+00
 -1.943963e-05 1.068192e-01 0.000000e+00
 -1.332448e-01 3.765329e-03 0.000000e+00
 -1.049707e-01 2.667451e-03 0.000000e+00
 -5.844887e-07 1.316678e-01 0.000000e+00
 -3.529131e-02 1.159416e-01 0.000000e+00
 -1.704804e-01 5.679967e-02 0.000000e+00
 -1.398154e-01 2.097388e-02 0.000000e+00
 -2.927666e-03 1.530907e-01 0.000000e+00
 -4.986207e-02 4.178484e-02 0.000000e+00
 -8.595052e-02 1.200731e-02 0.000000e+00
 -1.078152e-01 1.539206e-02 0.000000e+00
 -3.369755e-03 1.646122e-01 0.000000e+00
 -1.082794e-03 1.624990e-01 0.000000e+00
 -5.808262e-02 1.761253e-01 0.000000e+00
 -3.004878e-02 9.581193e-02 0.000000e+00
 -1.366767e-01 1.383938e-02 0.000000e+00
 -1.957404e-01 2.034961e-02 0.000000e+00
 -9.498569e-03 1.534282e-01 0.000000e+00
 -3.508708e-03 1.722565e-01 0.000000e+00
 -1.568598e-01 1.230461e-02 0.000000e+00
 -1.665306e-01 1.524755e-02 0.000000e+00
 -2.337907e-01 4.165614e-02 0.000000e+00
 -6.580367e-02 1.170024e-02 0.000000e+00
 -9.604463e-02 1.990121e-02 0.000000e+00
 -1.771272e-04 1.468394e-01 0.000000e+00
 -3.397342e-03 1.452543e-01 0.000000e+00
 -1.744840e-02 3.416582e-02 0.000000e+00
 -7.978271e-04 1.532639e-01 0.000000e+00
 -8.942075e-02 4.713127e-03 0.000000e+00
 -1.305734e-01 1.157782e-01 0.000000e+00
 -1.186513e-01 9.762537e-03 0.000000e+00
 -8.982115e-02 6.459528e-03 0.000000e+00
 -1.672348e-02 1.188704e-01 0.000000e+00
 -1.254535e-03 1.450475e-01 0.000000e+00
 -3.414169e-02 1.369080e-01 0.000000e+00
 -1.467325e-02 1.393245e-01 0.000000e+00
 -5.321359e-02 7.892841e-02 0.000000e+00
 -1.963873e-02 7.280465e-02 0.000000e+00
 -1.992863e-01 2.918120e-02 0.000000e+00
 -1.160802e-01 2.736259e-02 0.000000e+00
 -8.456946e-02 2.603728e-02 0.000000e+00
 -1.795704e-02 1.740851e-01 0.000000e+00
 -6.186728e-03 1.461947e-01 0.000000e+00
 -1.459798e-01 2.694118e-02 0.000000e+00
 -1.424881e-01 1.733413e-02 0.000000e+00
 -1.325764e-01 4.200924e-03 0.000000e+00
 -1.799900e-01 9.063074e-03 0.000000e+00
 -6.965029e-02 2.805462e-02 0.000000e+00
 -2.847388e-02 1.802405e-01 0.000000e+00
 -3.386112e-02 1.467894e-02 0.000000e+00
 -1.112499e-03 1.665917e-01 0.000000e+00
 -1.030875e-03 1.486680e-01 0.000000e+00
 -6.343305e-02 3.910496e-03 0.000000e+00
 -3.106161e-03 1.504335e-01 0.000000e+00
 -8.558549e-03 1.556738e-01 0.000000e+00
 -1.472914e-01 1.375239e-02 0.000000e+00
 -3.532807e-04 1.653556e-01 0.000000e+00
 -2.124621e-04 1.499567e-01 0.000000e+00
 -2.835727e-03 1.615347e-01 0.000000e+00
 -7.626110e-02 1.193021e-01 0.000000e+00
 -4.898191e-02 6.043670e-02 0.000000e+00
 -2.037459e-01 1.164424e-01 0.000000e+00
 -1.946905e-01 1.195864e-02 0.000000e+00
 -1.670853e-01 3.808230e-02 0.000000e+00
 -1.691803e-01 2.059137e-02 0.000000e+00
 -1.169785e-01 2.271856e-02 0.000000e+00
 -1.203152e-01 6.151938e-02 0.000000e+00
 -1.265015e-01 2.331698e-02 0.000000e+00
 -9.793260e-03 8.738847e-02 0.000000e+00
 -1.606262e-01 5.935772e-03 0.000000e+00
 -2.198671e-02 1.381582e-01 0.000000e+00
 -1.173594e-01 5.915862e-03 0.000000e+00
 -1.699620e-02 1.435486e-01 0.000000e+00
 -3.365127e-02 1.046469e-01 0.000000e+00
 -8.663019e-04 1.270157e-01 0.000000e+00
 -1.535329e-01 5.355266e-03 0.000000e+00
 7.235054e-05 1.329078e-01 0.000000e+00
 -4.894126e-03 1.019722e-01 0.000000e+00
 -3.651618e-03 1.134667e-01 0.000000e+00
 -4.206081e-03 1.617508e-01 0.000000e+00
 -8.372154e-03 1.585254e-01 0.000000e+00
 -1.708065e-01 2.827809e-02 0.000000e+00
 -1.951522e-03 1.135086e-01 0.000000e+00
 -6.076715e-03 1.497431e-01 0.000000e+00
 -7.513462e-02 4.540935e-03 0.000000e+00
 -1.176389e-03 1.640504e-01 0.000000e+00
 -1.243841e-01 1.834776e-01 0.000000e+00
 -8.926991e-02 7.650129e-02 0.000000e+00
 -1.210892e-01 4.797671e-03 0.000000e+00
 -1.123912e-01 3.604592e-02 0.000000e+00
 -1.345663e-01 2.172084e-02 0.000000e+00
 -1.110564e-01 2.056664e-03 0.000000e+00
 -1.253099e-01 3.426976e-02 0.000000e+00
 -8.049698e-02 1.137900e-03 0.000000e+00
 -8.383849e-02 1.748188e-03 0.000000e+00
 0.000000e+00 0.000000e+00 0.000000e+00
 -1.762058e-01 1.574031e-02 0.000000e+00
 -2.025246e-01 5.097550e-02 0.000000e+00
 0.000000e+00 0.000000e+00 0.000000e+00
 -3.082207e-03 6.437078e-03 0.000000e+00
 -8.361567e-04 8.342070e-04 0.000000e+00
 0.000000e+00 0.000000e+00 0.000000e+00
 -2.340384e-01 7.842519e-02 0.000000e+00
 -2.054812e-01 1.279262e-01 0.000000e+00
 1.686705e-05 7.896685e-02 0.000000e+00
 2.326089e-05 7.897075e-02 0.000000e+00
 0.000000e+00 0.000000e+00 0.000000e+00
 -5.740897e-05 1.451496e-01 0.000000e+00
 5.087868e-07 6.030071e-02 0.000000e+00
 -2.398154e-05 1.164684e-01 0.000000e+00
 5.236492e-06 6.023797e-02 0.000000e+00
 0.000000e+00 0.000000e+00 0.000000e+00
 -8.201784e-05 1.321671e-01 0.000000e+00
 -2.676786e-05 9.638716e-02 0.000000e+00
 -1.988309e-02 1.239375e-02 0.000000e+00
 -1.555725e-02 4.693043e-03 0.000000e+00
 -6.243248e-03 2.845782e-03 0.000000e+00
 -2.495807e-04 1.005692e-01 0.000000e+00
 -1.212378e-04 1.010394e-01 0.000000e+00
 0.000000e+00 0.000000e+00 0.000000e+00
 -2.539941e-02 4.391619e-03 0.000000e+00
 0.000000e+00 0.000000e+00 0.000000e+00
 0.000000e+00 0.000000e+00 0.000000e+00
 -6.722063e-02 6.899181e-03 0.000000e+00
 -3.608902e-02 1.374585e-03 0.000000e+00
 -4.652032e-02 3.460124e-03 0.000000e+00
 -8.698283e-04 1.420176e-01 0.000000e+00
 -1.716395e-04 7.613034e-02 0.000000e+00
 -2.859223e-04 7.532039e-02 0.000000e+00
 0.000000e+00 0.000000e+00 0.000000e+00
 -2.790302e-02 2.580072e-02 0.000000e+00
 -1.368618e-02 1.957819e-02 0.000000e+00
 -3.927095e-02 4.483447e-03 0.000000e+00
 0.000000e+00 0.000000e+00 0.000000e+00
 -3.949728e-02 1.169861e-03 0.000000e+00
 0.000000e+00 0.000000e+00 0.000000e+00
 -6.240528e-02 2.174487e-03 0.000000e+00
 -5.832740e-02 2.087554e-03 0.000000e+00
 0.000000e+00 0.000000e+00 0.000000e+00
 -9.638620e-02 1.284103e-02 0.000000e+00
 -9.007765e-02 8.908879e-03 0.000000e+00
 -8.989513e-02 1.483452e-02 0.000000e+00
 -5.736291e-02 1.518361e-03 0.000000e+00
 -5.354309e-02 1.442963e-03 0.000000e+00
 0.000000e+00 0.000000e+00 0.000000e+00
 -1.053833e-01 7.144428e-03 0.000000e+00
 -8.241610e-02 3.078396e-03 0.000000e+00
 -1.323410e-01 3.833346e-03 0.000000e+00
 -9.703112e-02 1.638201e-03 0.000000e+00
 -5.992665e-02 7.659386e-04 0.000000e+00
 -2.631053e-03 1.352580e-01 0.000000e+00
 -4.029245e-04 6.776669e-02 0.000000e+00
 -8.020234e-04 1.014696e-01 0.000000e+00
 -6.254368e-04 6.601401e-02 0.000000e+00
 0.000000e+00 0.000000e+00 0.000000e+00
 -6.867216e-02 7.375429e-02 0.000000e+00
 -7.954600e-02 5.773703e-02 0.000000e+00
 -6.377670e-02 6.071167e-02 0.000000e+00
 -4.344269e-03 1.083288e-01 0.000000e+00
 -4.931194e-02 1.394908e-01 0.000000e+00
 0.000000e+00 0.000000e+00 0.000000e+00
 -7.499769e-03 1.619387e-01 0.000000e+00
 6.144929e-04 8.979219e-02 0.000000e+00
 -3.183649e-05 1.403049e-01 0.000000e+00
 3.518051e-04 7.850524e-02 0.000000e+00
 6.222783e-04 8.874563e-02 0.000000e+00
 1.991151e-04 7.860736e-02 0.000000e+00
 0.000000e+00 0.000000e+00 0.000000e+00
 -5.072558e-04 1.570611e-01 0.000000e+00
 -3.270277e-04 1.682219e-01 0.000000e+00
 -1.783719e-04 1.653985e-01 0.000000e+00
 -1.364820e-01 3.527911e-03 0.000000e+00
 -6.085604e-02 6.057555e-04 0.000000e+00
 -1.428125e-01 5.688490e-03 0.000000e+00
 -5.694204e-02 1.386893e-03 0.000000e+00
 -1.127001e-01 3.867987e-03 0.000000e+00
 -1.194802e-01 7.825715e-03 0.000000e+00
 -7.488759e-02 1.752992e-03 0.000000e+00
 -8.782374e-02 3.049912e-03 0.000000e+00
 -1.742063e-01 7.588793e-03 0.000000e+00
 -9.384644e-02 1.640797e-03 0.000000e+00
 -1.260108e-01 2.904267e-03 0.000000e+00
 -1.194012e-01 5.364068e-03 0.000000e+00
 -7.322404e-02 1.530978e-03 0.000000e+00
 0.000000e+00 0.000000e+00 0.000000e+00
 -9.877290e-02 2.029904e-03 0.000000e+00
 0.000000e+00 0.000000e+00 0.000000e+00
 -1.260243e-03 6.618893e-02 0.000000e+00
 -9.433462e-04 6.943466e-02 0.000000e+00
 0.000000e+00 0.000000e+00 0.000000e+00
 -8.358723e-03 1.355021e-01 0.000000e+00
 -6.757862e-03 1.423383e-01 0.000000e+00
 -1.208754e-02 1.471675e-01 0.000000e+00
 7.343210e-06 9.301625e-02 0.000000e+00
 2.639533e-05 9.318251e-02 0.000000e+00
 0.000000e+00 0.000000e+00 0.000000e+00
 -1.341365e-02 1.053924e-01 0.000000e+00
 -2.892773e-03 5.925439e-02 0.000000e+00
 -5.469808e-03 8.802209e-02 0.000000e+00
 -1.467430e-01 1.574919e-02 0.000000e+00
 -1.447642e-01 1.648443e-02 0.000000e+00
 -1.549622e-01 1.398288e-02 0.000000e+00
 -1.314929e-01 5.064558e-03 0.000000e+00
 -1.221587e-01 3.490973e-03 0.000000e+00
 0.000000e+00 0.000000e+00 0.000000e+00
 -3.202290e-03 5.193601e-02 0.000000e+00
 0.000000e+00 0.000000e+00 0.000000e+00
 -6.802743e-03 4.560272e-02 0.000000e+00
 -6.075489e-03 5.683475e-02 0.000000e+00
 0.000000e+00 0.000000e+00 0.000000e+00
 -5.066175e-04 1.469801e-01 0.000000e+00
 -5.596353e-04 1.444477e-01 0.000000e+00
 -2.629668e-04 1.436671e-01 0.000000e+00
 -1.044930e-04 1.654522e-01 0.000000e+00
 -2.590219e-04 1.584635e-01 0.000000e+00
 -1.241022e-04 1.627706e-01 0.000000e+00
 -1.529630e-01 5.817397e-03 0.000000e+00
 -1.180105e-01 3.325229e-03 0.000000e+00
 -8.474921e-02 1.215067e-03 0.000000e+00
 -8.164002e-02 1.292800e-03 0.000000e+00
 0.000000e+00 0.000000e+00 0.000000e+00
 -1.324164e-01 2.654746e-02 0.000000e+00
 -1.280087e-01 2.740362e-02 0.000000e+00
 -1.439414e-01 2.894998e-02 0.000000e+00
 -1.451545e-01 1.710498e-02 0.000000e+00
 -1.433002e-01 1.718671e-02 0.000000e+00
 -1.266147e-04 1.610139e-01 0.000000e+00
 -8.203897e-06 1.505514e-01 0.000000e+00
 1.983546e-05 1.141672e-01 0.000000e+00
 -7.563115e-02 2.496714e-02 0.000000e+00
 -6.828314e-02 3.479816e-02 0.000000e+00
 -7.939085e-02 3.403501e-02 0.000000e+00
 -5.978252e-02 4.212515e-02 0.000000e+00
 -5.946395e-02 5.001318e-02 0.000000e+00
 -2.429282e-02 1.372294e-01 0.000000e+00
 -1.587071e-02 1.424088e-01 0.000000e+00
 -2.190497e-02 1.420824e-01 0.000000e+00
 -1.596389e-01 7.959510e-03 0.000000e+00
 -1.649676e-01 9.816223e-03 0.000000e+00
 -1.847847e-01 2.858507e-02 0.000000e+00
 -1.554474e-01 3.013042e-02 0.000000e+00
 -1.681517e-01 3.135203e-02 0.000000e+00
 -1.696951e-01 1.190761e-02 0.000000e+00
 -1.570069e-01 1.565528e-02 0.000000e+00
 -1.647956e-01 1.358298e-02 0.000000e+00
 -7.239936e-03 1.511860e-01 0.000000e+00
 -1.134604e-02 1.492022e-01 0.000000e+00
 -9.255848e-03 1.450893e-01 0.000000e+00
 -3.244358e-04 1.635914e-01 0.000000e+00
 -6.648057e-05 1.398197e-01 0.000000e+00
 -1.456235e-01 3.749885e-02 0.000000e+00
 -1.458459e-01 4.348743e-02 0.000000e+00
 -1.718181e-01 4.572501e-02 0.000000e+00
 -5.476610e-03 1.644600e-02 0.000000e+00
 -5.560219e-03 2.800222e-02 0.000000e+00
 0.000000e+00 0.000000e+00 0.000000e+00
 -1.636993e-01 1.209939e-02 0.000000e+00
 -3.548234e-02 7.296134e-02 0.000000e+00
 -4.955477e-02 5.229713e-02 0.000000e+00
 -3.467615e-02 6.027388e-02 0.000000e+00
 -1.359051e-01 3.295355e-02 0.000000e+00
 -1.525627e-01 3.310741e-02 0.000000e+00
 -1.283208e-01 2.977595e-02 0.000000e+00
 -1.051469e-01 2.385818e-02 0.000000e+00
 -1.080938e-01 2.143450e-02 0.000000e+00
 -1.012933e-01 1.770015e-02 0.000000e+00
 -6.010542e-04 1.677860e-01 0.000000e+00
 -1.138774e-04 1.584205e-01 0.000000e+00
 -1.350928e-03 1.534409e-01 0.000000e+00
 -1.943757e-03 1.589284e-01 0.000000e+00
 -2.043693e-03 1.482321e-01 0.000000e+00
 -7.390125e-03 1.530817e-01 0.000000e+00
 -9.119590e-03 1.447992e-01 0.000000e+00
 -1.142441e-02 1.460613e-01 0.000000e+00
 -1.602589e-02 1.298018e-01 0.000000e+00
 -2.404185e-02 1.303108e-01 0.000000e+00
 -2.607316e-02 1.208774e-01 0.000000e+00
 -5.343973e-02 1.317397e-01 0.000000e+00
 -5.216565e-02 1.088865e-01 0.000000e+00
 -3.717562e-02 1.238756e-01 0.000000e+00
 -1.741162e-01 1.574569e-01 0.000000e+00
 -1.368181e-01 1.721447e-01 0.000000e+00
 -1.332596e-01 3.774593e-03 0.000000e+00
 0.000000e+00 0.000000e+00 0.000000e+00
 -1.754862e-01 1.073325e-02 0.000000e+00
 -1.584927e-01 7.090402e-03 0.000000e+00
 -1.526968e-01 1.283931e-02 0.000000e+00
 -1.410382e-01 1.860886e-02 0.000000e+00
 -1.444040e-01 1.690279e-02 0.000000e+00
 -1.870890e-02 1.406221e-01 0.000000e+00
 -2.852687e-02 1.280636e-01 0.000000e+00
 -4.250492e-03 1.555239e-01 0.000000e+00
 -4.869152e-03 1.591789e-01 0.000000e+00
 -3.173324e-03 1.643019e-01 0.000000e+00
 -2.923422e-02 1.559423e-01 0.000000e+00
 -3.363481e-02 1.780847e-01 0.000000e+00
 -4.484336e-02 1.519081e-01 0.000000e+00
 -1.501387e-01 1.733870e-02 0.000000e+00
 -1.414072e-01 1.879110e-02 0.000000e+00
 -1.503153e-01 1.930737e-02 0.000000e+00
 -1.258756e-01 1.705881e-02 0.000000e+00
 -1.313102e-01 1.885570e-02 0.000000e+00
 -1.288560e-01 1.204012e-02 0.000000e+00
 -1.579848e-01 2.442309e-02 0.000000e+00
 -1.494438e-01 2.207239e-02 0.000000e+00
 -1.411580e-01 2.417369e-02 0.000000e+00
 -9.592607e-02 3.032479e-02 0.000000e+00
 -1.004561e-01 2.637427e-02 0.000000e+00
 -9.072689e-02 2.210679e-02 0.000000e+00
 -2.101594e-01 4.308657e-02 0.000000e+00
 -2.153460e-01 5.845714e-02 0.000000e+00
 -7.252172e-02 2.074204e-02 0.000000e+00
 -7.888640e-02 1.809370e-02 0.000000e+00
 -7.849311e-02 1.180464e-02 0.000000e+00
 -6.948830e-02 4.208940e-03 0.000000e+00
 -4.727113e-02 1.474009e-03 0.000000e+00
 -5.022537e-02 6.833042e-02 0.000000e+00
 -3.953515e-02 7.840401e-02 0.000000e+00
 -4.108025e-02 8.690248e-02 0.000000e+00
 -1.149838e-01 2.504954e-02 0.000000e+00
 -1.121897e-01 1.918954e-02 0.000000e+00
 -2.219540e-03 1.438277e-01 0.000000e+00
 -3.398662e-03 1.449766e-01 0.000000e+00
 -2.349355e-03 1.678500e-01 0.000000e+00
 -3.516395e-03 1.571583e-01 0.000000e+00
 -2.167351e-03 1.646100e-01 0.000000e+00
 -5.765073e-03 1.608783e-01 0.000000e+00
 -9.374038e-03 1.564298e-01 0.000000e+00
 -5.695856e-03 1.549939e-01 0.000000e+00
 -1.351831e-03 1.473362e-01 0.000000e+00
 -5.145864e-02 1.389435e-02 0.000000e+00
 -4.563528e-02 2.902059e-02 0.000000e+00
 -6.199822e-02 2.453861e-02 0.000000e+00
 -1.920741e-02 5.405802e-02 0.000000e+00
 -3.459836e-02 4.260896e-02 0.000000e+00
 -1.730012e-03 1.666897e-01 0.000000e+00
 -1.770177e-03 1.629645e-01 0.000000e+00
 -3.285200e-03 1.521797e-01 0.000000e+00
 -1.839851e-03 1.621481e-01 0.000000e+00
 -2.116223e-03 1.525163e-01 0.000000e+00
 -1.218766e-01 2.328520e-02 0.000000e+00
 -1.202815e-01 1.658460e-02 0.000000e+00
 -9.049828e-02 5.621283e-03 0.000000e+00
 -1.011264e-01 1.052965e-02 0.000000e+00
 -1.057780e-01 9.853106e-03 0.000000e+00
 -2.272790e-02 1.876514e-01 0.000000e+00
 -5.008955e-02 1.947868e-01 0.000000e+00
 -1.949283e-01 8.127989e-02 0.000000e+00
 -7.695942e-02 1.365089e-03 0.000000e+00
 0.000000e+00 0.000000e+00 0.000000e+00
 -1.147672e-01 1.299859e-02 0.000000e+00
 -4.309458e-02 9.130946e-02 0.000000e+00
 -3.484913e-02 1.100005e-01 0.000000e+00
 -4.497730e-02 9.816856e-02 0.000000e+00
 -1.419321e-02 8.244676e-02 0.000000e+00
 -1.958597e-02 9.956089e-02 0.000000e+00
 -2.515339e-02 8.727810e-02 0.000000e+00
 -1.251461e-03 1.671730e-01 0.000000e+00
 -5.915235e-04 1.654285e-01 0.000000e+00
 -5.182115e-04 1.594658e-01 0.000000e+00
 -1.062756e-01 6.984850e-02 0.000000e+00
 -1.081142e-01 9.355848e-02 0.000000e+00
 -1.301111e-01 8.662892e-02 0.000000e+00
 -1.218837e-02 1.497739e-01 0.000000e+00
 -1.343769e-02 1.504345e-01 0.000000e+00
 -1.704334e-03 5.736254e-02 0.000000e+00
 -1.436067e-03 6.194212e-02 0.000000e+00
 0.000000e+00 0.000000e+00 0.000000e+00
 -1.965996e-02 1.413147e-01 0.000000e+00
 -2.829176e-02 1.328741e-01 0.000000e+00
 -8.630735e-02 9.869515e-02 0.000000e+00
 -6.452273e-02 9.129144e-02 0.000000e+00
 -2.495332e-02 1.150211e-01 0.000000e+00
 -3.194080e-02 1.005000e-01 0.000000e+00
 -2.315538e-02 1.093022e-01 0.000000e+00
 -1.404570e-01 1.785493e-02 0.000000e+00
 -1.370147e-01 2.187936e-02 0.000000e+00
 -2.151218e-01 2.196076e-02 0.000000e+00
 -2.063188e-01 1.669230e-02 0.000000e+00
 -1.986540e-01 2.431839e-02 0.000000e+00
 -1.195777e-01 3.527567e-02 0.000000e+00
 -1.055036e-01 2.653289e-02 0.000000e+00
 -1.862887e-01 3.470793e-02 0.000000e+00
 -2.209029e-01 3.230027e-02 0.000000e+00
 -8.328787e-02 1.783668e-02 0.000000e+00
 -1.612516e-01 8.954349e-02 0.000000e+00
 -1.668167e-01 1.232464e-01 0.000000e+00
 0.000000e+00 0.000000e+00 0.000000e+00
 -1.637594e-02 1.543674e-01 0.000000e+00
 -1.193061e-02 1.657468e-01 0.000000e+00
 -6.068232e-03 1.679556e-01 0.000000e+00
 -8.449079e-03 1.743702e-01 0.000000e+00
 -4.661306e-03 1.440715e-01 0.000000e+00
 -4.346727e-03 1.491214e-01 0.000000e+00
 -1.850584e-01 1.541693e-02 0.000000e+00
 -1.823679e-01 2.075276e-02 0.000000e+00
 -1.929730e-01 1.432623e-02 0.000000e+00
 -1.567873e-01 2.787340e-02 0.000000e+00
 -1.857097e-01 2.493414e-02 0.000000e+00
 -1.709546e-01 2.537267e-02 0.000000e+00
 -1.491789e-01 8.596763e-03 0.000000e+00
 -1.560589e-01 8.415039e-03 0.000000e+00
 -1.776203e-01 8.334471e-03 0.000000e+00
 -1.969534e-01 1.319186e-02 0.000000e+00
 -1.679353e-01 1.756090e-02 0.000000e+00
 -6.164886e-02 3.518298e-02 0.000000e+00
 -7.681868e-02 1.976100e-01 0.000000e+00
 -8.611264e-02 1.850931e-01 0.000000e+00
 -5.623034e-04 1.566363e-01 0.000000e+00
 -1.088817e-03 1.632967e-01 0.000000e+00
 -1.840723e-03 1.693756e-01 0.000000e+00
 -1.180551e-05 1.231303e-01 0.000000e+00
 -8.687372e-03 1.789597e-01 0.000000e+00
 -2.379560e-03 1.686059e-01 0.000000e+00
 -8.105921e-02 7.969910e-03 0.000000e+00
 -8.272045e-02 5.333056e-03 0.000000e+00
 -8.505267e-02 8.107962e-03 0.000000e+00
 -2.717054e-03 1.140573e-01 0.000000e+00
 -5.145908e-03 1.451428e-01 0.000000e+00
 -1.740683e-03 1.414393e-01 0.000000e+00
 -2.022434e-03 1.566563e-01 0.000000e+00
 -3.371360e-03 1.606075e-01 0.000000e+00
 -6.472824e-03 1.444056e-01 0.000000e+00
 -4.625631e-03 1.473023e-01 0.000000e+00
 -5.512042e-03 1.614347e-01 0.000000e+00
 -1.307503e-01 2.274420e-02 0.000000e+00
 -1.362553e-01 1.828478e-02 0.000000e+00
 -1.431680e-01 9.319013e-03 0.000000e+00
 -1.355361e-01 9.033640e-03 0.000000e+00
 -1.424224e-01 1.396513e-02 0.000000e+00
 -6.970007e-04 1.647846e-01 0.000000e+00
 -8.011265e-04 1.549794e-01 0.000000e+00
 -4.536702e-04 1.518443e-01 0.000000e+00
 -1.097291e-03 1.674951e-01 0.000000e+00
 -7.325094e-02 1.501069e-01 0.000000e+00
 -1.009809e-01 1.517206e-01 0.000000e+00
 -1.375829e-01 1.512708e-01 0.000000e+00
 -1.018402e-01 1.205436e-01 0.000000e+00
 -2.177355e-01 2.154703e-02 0.000000e+00
 -1.199036e-01 3.020759e-02 0.000000e+00
 -1.800415e-01 1.276759e-02 0.000000e+00
 -1.238225e-01 2.748270e-02 0.000000e+00
 -9.699944e-02 3.911943e-02 0.000000e+00