<?xml version="1.0"?>
<VTKFile type="UnstructuredGrid"  version="0.1"  >
<UnstructuredGrid>
<Piece  NumberOfPoints="505" NumberOfCells="928">
<Points>
<DataArray  type="Float32"  NumberOfComponents="3"  format="ascii">
0 0 0
1 0 0
0 1 0
1 0.5 0
0.5 0.5 0
0.5 1 0
0.1 0 0
0.2 0 0
0.3 0 0
0.4 0 0
0.5 0 0
0.6 0 0
0.7 0 0
0.8 0 0
0.9 0 0
0 0.9 0
0 0.8 0
0 0.7 0
0 0.6 0
0 0.5 0
0 0.4 0
0 0.3 0
0 0.2 0
0 0.1 0
0.9 0.5 0
0.8 0.5 0
0.7 0.5 0
0.6 0.5 0
0.5 0.6 0
0.5 0.7 0
0.5 0.8 0
0.5 0.9 0
0.1 1 0
0.2 1 0
0.3 1 0
0.4 1 0
1 0.1 0
1 0.2 0
1 0.3 0
1 0.4 0
0.300178 0.296564 0
0.247566 0.664879 0
0.639694 0.259804 0
0.06564 0.06472 0
0.04439 0.954144 0
0.932418 0.064715 0
0.951013 0.456419 0
0.437622 0.939659 0
0.195334 0.464441 0
0.483382 0.329596 0
0.834786 0.236295 0
0.307228 0.81139 0
0.178229 0.173372 0
0.366998 0.134199 0
0.547485 0.14214 0
0.124832 0.74927 0
0.160163 0.896658 0
0.342556 0.535243 0
0.147651 0.342018 0
0.729803 0.127878 0
0.725981 0.357775 0
0.121369 0.600441 0
0.372954 0.70814 0
0.908503 0.151525 0
0.89851 0.333305 0
0.556275 0.400898 0
0.259184 0.092178 0
0.46329 0.194362 0
0.423773 0.869712 0
0.22823 0.818162 0
0.081292 0.144905 0
0.082979 0.831935 0
0.549999 0.065419 0
0.371537 0.407588 0
0.642628 0.097865 0
0.459835 0.086595 0
0.108565 0.418567 0
0.273082 0.902112 0
0.256598 0.556659 0
0.11951 0.509541 0
0.234147 0.370527 0
0.097453 0.253261 0
0.638438 0.342389 0
0.554656 0.224779 0
0.373432 0.237603 0
0.339663 0.62579 0
0.27079 0.747786 0
0.733958 0.266592 0
0.928527 0.244458 0
0.853116 0.071497 0
0.818426 0.404817 0
0.280194 0.200604 0
0.417859 0.565185 0
0.147241 0.079056 0
0.389149 0.789957 0
0.42808 0.654642 0
0.343469 0.059202 0
0.086765 0.684153 0
0.162043 0.675011 0
0.809252 0.14201 0
0.364337 0.928607 0
0.077532 0.916553 0
0.159064 0.807906 0
0.302124 0.454032 0
0.205909 0.272176 0
0.449664 0.407415 0
0.66041 0.423241 0
0.562201 0.303789 0
0.802658 0.320211 0
0.614551 0.182931 0
0.390944 0.331035 0
0.687136 0.18846 0
0.070577 0.342498 0
0.741087 0.437361 0
0.176989 0.547528 0
0.710251 0.07409 0
0.192845 0.608574 0
0.171114 0.398277 0
0.058959 0.753084 0
0.904 0.425508 0
0.438039 0.730373 0
0.057223 0.475897 0
0.058502 0.552106 0
0.330493 0.750997 0
0.312295 0.699131 0
0.684882 0.307111 0
0.053312 0.627311 0
0.198798 0.743695 0
0.392326 0.069953 0
0.351519 0.860283 0
0.397134 0.477694 0
0.319385 0.371198 0
0.767351 0.069505 0
0.441954 0.271171 0
0.759504 0.192785 0
0.855661 0.457701 0
0.500847 0.264652 0
0.916209 0.0323575 0
0.966209 0.0323575 0
0.95 0 0
0.578137 0.450449 0
0.528137 0.450449 0
0.55 0.5 0
0.03282 0.08236 0
0.03282 0.03236 0
0 0.05 0
0.502969 0.404157 0
0.474832 0.453708 0
0.468811 0.91983 0
0.468811 0.96983 0
0.5 0.95 0
0.072195 0.977072 0
0.022195 0.977072 0
0.05 1 0
0.022195 0.927072 0
0 0.95 0
0.060961 0.935348 0
0.038766 0.908276 0
0.106441 0.071888 0
0.123621 0.039528 0
0.08282 0.03236 0
0.0414895 0.815967 0
0.0414895 0.865968 0
0 0.85 0
0.173621 0.039528 0
0.15 0 0
0.05 0 0
0.301327 0.07569 0
0.321735 0.029601 0
0.279592 0.046089 0
0.070969 0.792509 0
0.0294795 0.776542 0
0.0294795 0.726542 0
0 0.75 0
0.114267 0.111981 0
0.073466 0.104813 0
0.229592 0.046089 0
0.25 0 0
0.371735 0.029601 0
0.35 0 0
0.479917 0.0432975 0
0.429918 0.0432975 0
0.45 0 0
0.461562 0.140479 0
0.413416 0.110397 0
0.415144 0.16428 0
0.574999 0.0327095 0
0.525 0.0327095 0
0.55 0 0
0.596313 0.081642 0
0.621314 0.0489325 0
0.927507 0.440964 0
0.902 0.462754 0
0.925507 0.47821 0
0.0700385 0.655732 0
0.026656 0.663655 0
0.0433825 0.692076 0
0.026656 0.613655 0
0 0.65 0
0.276766 0.370862 0
0.309781 0.333881 0
0.267162 0.333545 0
0.458929 0.582593 0
0.458929 0.532593 0
0.5 0.55 0
0.422969 0.609913 0
0.46404 0.627321 0
0.43306 0.692508 0
0.46902 0.715186 0
0.46404 0.677321 0
0.46902 0.765186 0
0.5 0.75 0
0.180082 0.948329 0
0.130082 0.948329 0
0.15 1 0
0.87983 0.441605 0
0.87783 0.478851 0
0.975507 0.42821 0
0.975507 0.47821 0
1 0.45 0
0.676439 0.0859775 0
0.705125 0.037045 0
0.671314 0.0489325 0
0.779756 0.421089 0
0.770544 0.46868 0
0.809213 0.452408 0
0.738801 0.0717975 0
0.733675 0.0347525 0
0.95 0.5 0
0.720544 0.46868 0
0.75 0.5 0
0.029251 0.526053 0
0.029251 0.576053 0
0 0.55 0
0.089006 0.530824 0
0.0899355 0.576273 0
0.12044 0.554991 0
0.461886 0.884856 0
0.461886 0.834856 0
0.5 0.85 0
0.089571 0.380533 0
0.0352885 0.371249 0
0.0542825 0.409284 0
0.918515 0.197991 0
0.964263 0.222229 0
0.954252 0.175762 0
0.630205 0.46162 0
0.680205 0.46162 0
0.65 0.5 0
0.0352885 0.321249 0
0 0.35 0
0.0487265 0.226631 0
0.0487265 0.276631 0
0 0.25 0
0.286541 0.951056 0
0.236541 0.951056 0
0.25 1 0
0.382169 0.964303 0
0.332168 0.964303 0
0.35 1 0
0.966209 0.0823575 0
1 0.05 0
0.876558 0.0357485 0
0.826558 0.0357485 0
0.85 0 0
0.710547 0.227526 0
0.663415 0.224132 0
0.686826 0.263198 0
0.964263 0.272229 0
1 0.25 0
0.40098 0.934133 0
0.418811 0.96983 0
0.45 1 0
0.326813 0.219104 0
0.290186 0.248584 0
0.336805 0.267084 0
0.243052 0.23639 0
0.253043 0.28437 0
0.224721 0.582616 0
0.220205 0.636726 0
0.252082 0.610769 0
0.92046 0.10812 0
0.954252 0.125762 0
0.66166 0.32475 0
0.662288 0.283458 0
0.639066 0.301096 0
0.949255 0.366653 0
0.949255 0.316653 0
1 0.35 0
0.291542 0.723459 0
0.27993 0.682005 0
0.259178 0.706333 0
0.394055 0.89916 0
0.430698 0.904686 0
0.531524 0.28422 0
0.492115 0.297124 0
0.522791 0.316692 0
0.040646 0.122453 0
0.040646 0.172453 0
0 0.15 0
1 0.15 0
0.151681 0.262718 0
0.192069 0.222774 0
0.137841 0.213317 0
0.558428 0.264284 0
0.600947 0.281797 0
0.597175 0.242291 0
0.508973 0.20957 0
0.551071 0.183459 0
0.505387 0.168251 0
0.118847 0.906605 0
0.088766 0.958276 0
0.3123 0.881198 0
0.329373 0.835836 0
0.290155 0.856751 0
0.18042 0.709353 0
0.223182 0.704287 0
0.204805 0.669945 0
0.114037 0.464054 0
0.157422 0.486991 0
0.15195 0.441504 0
0.279361 0.505346 0
0.248729 0.459236 0
0.225966 0.51055 0
0.423399 0.442555 0
0.448567 0.488847 0
0.892767 0.068106 0
0.65 0 0
0.901255 0.379406 0
0.952 0.412754 0
0.858877 0.146767 0
0.822019 0.189153 0
0.871644 0.19391 0
0.14825 0.528535 0
0.186162 0.505985 0
0.178931 0.775801 0
0.161815 0.746482 0
0.141948 0.778588 0
0.29813 0.591225 0
0.34111 0.580516 0
0.299577 0.545951 0
0.913519 0.288882 0
0.881657 0.240376 0
0.866648 0.2848 0
0.664882 0.143162 0
0.708469 0.158169 0
0.686215 0.112871 0
0.768308 0.293401 0
0.818722 0.278253 0
0.784372 0.251443 0
0.407693 0.254387 0
0.452622 0.232766 0
0.418361 0.215983 0
0.559238 0.352343 0
0.519829 0.365247 0
0.269689 0.146391 0
0.323596 0.167402 0
0.313091 0.113188 0
0.367897 0.0645775 0
0.396163 0.0349765 0
0.220028 0.321352 0
0.17678 0.307097 0
0.190899 0.356272 0
0.584604 0.203855 0
0.581018 0.162535 0
0.250656 0.860137 0
0.267729 0.814776 0
0.359821 0.770477 0
0.31886 0.781193 0
0.348189 0.800674 0
0.124404 0.679582 0
0.141706 0.637726 0
0.104067 0.642297 0
0.216622 0.899385 0
0.203213 0.085617 0
0.162735 0.126214 0
0.218707 0.132775 0
0.0893725 0.199083 0
0.129761 0.159139 0
0.121022 0.819921 0
0.103905 0.790602 0
0.193647 0.813034 0
0.159614 0.852282 0
0.194196 0.85741 0
0.650843 0.185696 0
0.628589 0.140398 0
0.504917 0.076007 0
0.50366 0.114367 0
0.548742 0.103779 0
0.378761 0.595487 0
0.380208 0.550214 0
0.466523 0.368506 0
0.783675 0.0347525 0
0.75 0 0
0.595056 0.120002 0
0.20263 0.384402 0
0.183224 0.431359 0
0.214741 0.417484 0
0.084015 0.29788 0
0.109114 0.342258 0
0.122552 0.29764 0
0.370334 0.82512 0
0.387646 0.864998 0
0.406461 0.829835 0
0.355164 0.351116 0
0.345461 0.389393 0
0.38124 0.369312 0
0.177444 0.641792 0
0.157107 0.604507 0
0.0286115 0.437949 0
0.0286115 0.487949 0
0 0.45 0
0.184917 0.578051 0
0.216794 0.552094 0
0.310754 0.412615 0
0.268135 0.41228 0
0.13984 0.408422 0
0.159382 0.370147 0
0.128108 0.380293 0
0.784378 0.167398 0
0.797145 0.21454 0
0.649424 0.382815 0
0.693196 0.390508 0
0.682209 0.350082 0
0.471401 0.267911 0
0.482069 0.229507 0
0.600319 0.323089 0
0.597356 0.371644 0
0.370215 0.185901 0
0.420304 0.369225 0
0.410601 0.407502 0
0.5 0.65 0
0.293615 0.645334 0
0.325979 0.66246 0
0.342624 0.703635 0
0.356309 0.666965 0
0.24951 0.782974 0
0.289009 0.779588 0
0.810542 0.362514 0
0.76432 0.338993 0
0.772204 0.381296 0
0.70942 0.286852 0
0.705431 0.332443 0
0.729969 0.312184 0
0.831184 0.106754 0
0.88081 0.111511 0
0.700748 0.430301 0
0.733534 0.397568 0
0.850584 0.326758 0
0.229212 0.186988 0
0.407496 0.52144 0
0.369845 0.506468 0
0.413594 0.760165 0
0.405497 0.719256 0
0.381051 0.749049 0
0.444574 0.794979 0
0.383872 0.640216 0
0.400517 0.681391 0
0.355233 0.0967005 0
0.42608 0.078274 0
0.379662 0.102076 0
0.055907 0.589708 0
0.0873405 0.613876 0
0.072862 0.718619 0
0.0918955 0.751177 0
0.105798 0.716711 0
0.234794 0.74574 0
0.213514 0.780928 0
0.143437 0.712141 0
0.72332 0.190623 0
0.744653 0.160332 0
0.788301 0.105758 0
0.748577 0.0986915 0
0.769527 0.134944 0
0.357928 0.894445 0
0.318709 0.915359 0
0.0802555 0.874244 0
0.121571 0.864297 0
0.32234 0.494638 0
0.349629 0.465863 0
0.384335 0.442641 0
0.336831 0.43081 0
0.608343 0.412069 0
0.527752 0.244716 0
0.858468 0.369061 0
0.627123 0.221367 0
0.382188 0.284319 0
0.345561 0.3138 0
0.437163 0.330315 0
0.746731 0.229689 0
0.149179 0.573985 0
0.720027 0.100984 0
0.810234 0.070501 0
0.861213 0.415162 0
0.827831 0.478851 0
0.85 0.5 0
0.082894 0.447232 0
0.0883665 0.492719 0
0.0578625 0.514002 0
0.300642 0.749391 0
0.351723 0.729569 0
0.321394 0.725064 0
0.416449 0.301103 0
0.462668 0.300384 0
0.837044 0.431259 0
</DataArray>
</Points>
<Cells>
<DataArray  type="UInt32"  Name="connectivity"  format="ascii">
1 138 139 
14 137 139 
45 137 138 
137 138 139 
4 141 142 
27 140 142 
65 140 141 
140 141 142 
0 144 145 
23 143 145 
43 143 144 
143 144 145 
4 141 147 
65 141 146 
105 146 147 
141 146 147 
5 149 150 
31 148 150 
47 148 149 
148 149 150 
2 152 153 
32 151 153 
44 151 152 
151 152 153 
2 152 155 
15 154 155 
44 152 154 
152 154 155 
15 154 157 
44 154 156 
101 156 157 
154 156 157 
6 159 160 
43 158 160 
93 158 159 
158 159 160 
15 162 163 
16 161 163 
71 161 162 
161 162 163 
6 159 165 
7 164 165 
93 159 164 
159 164 165 
[...]
<PointData  Vectors="u"> 
<DataArray  type="Float32"  Name="u"  NumberOfComponents="3" format="ascii">
 0.000000e+00 0.000000e+00 0.000000e+00
 0.000000e+00 0.000000e+00 0.000000e+00
 0.000000e+00 0.000000e+00 0.000000e+00
 0.000000e+00 0.000000e+00 0.000000e+00
 0.000000e+00 0.000000e+00 0.000000e+00
 0.000000e+00 0.000000e+00 0.000000e+00
 0.000000e+00 0.000000e+00 0.000000e+00
 0.000000e+00 0.000000e+00 0.000000e+00
 0.000000e+00 0.000000e+00 0.000000e+00
 0.000000e+00 0.000000e+00 0.000000e+00
 0.000000e+00 0.000000e+00 0.000000e+00
 0.000000e+00 0.000000e+00 0.000000e+00
 0.000000e+00 0.000000e+00 0.000000e+00
 0.000000e+00 0.000000e+00 0.000000e+00
 0.000000e+00 0.000000e+00 0.000000e+00
 0.000000e+00 0.000000e+00 0.000000e+00
 0.000000e+00 0.000000e+00 0.000000e+00
 0.000000e+00 0.000000e+00 0.000000e+00
 0.000000e+00 0.000000e+00 0.000000e+00
 0.000000e+00 0.000000e+00 0.000000e+00
 0.000000e+00 0.000000e+00 0.000000e+00
 0.000000e+00 0.000000e+00 0.000000e+00
 0.000000e+00 0.000000e+00 0.000000e+00
 0.000000e+00 0.000000e+00 0.000000e+00
 0.000000e+00 0.000000e+00 0.000000e+00
 0.000000e+00 0.000000e+00 0.000000e+00
 0.000000e+00 0.000000e+00 0.000000e+00
 0.000000e+00 0.000000e+00 0.000000e+00
 0.000000e+00 0.000000e+00 0.000000e+00
 0.000000e+00 0.000000e+00 0.000000e+00
 0.000000e+00 0.000000e+00 0.000000e+00
 0.000000e+00 0.000000e+00 0.000000e+00
 2.293822e-04 1.286364e-01 0.000000e+00
 5.445159e-04 6.705710e-02 0.000000e+00
 5.607023e-04 6.479083e-02 0.000000e+00
 2.812714e-04 1.269624e-01 0.000000e+00
 -1.239205e-01 8.454633e-03 0.000000e+00
 -6.204019e-02 1.795065e-02 0.000000e+00
 -6.876703e-02 1.925738e-02 0.000000e+00
 -1.330712e-01 9.988587e-03 0.000000e+00
 -3.099579e-02 -2.704989e-03 0.000000e+00
 -1.059182e-02 5.180892e-02 0.000000e+00
 -5.033879e-02 2.555890e-02 0.000000e+00
 -1.127428e-02 1.096714e-02 0.000000e+00
 2.079684e-05 1.087288e-01 0.000000e+00
 -1.194323e-01 4.402250e-03 0.000000e+00
 -1.123149e-01 3.113896e-03 0.000000e+00
 -3.834481e-05 1.250896e-01 0.000000e+00
 -2.130687e-02 5.054958e-02 0.000000e+00
 -9.675371e-02 2.238639e-02 0.000000e+00
 -4.720581e-02 2.693101e-02 0.000000e+00
 -3.565010e-03 6.888423e-02 0.000000e+00
 -4.017942e-02 3.150585e-02 0.000000e+00
 -4.992021e-02 6.984406e-04 0.000000e+00
 -4.120101e-02 9.329457e-03 0.000000e+00
 -3.637713e-03 1.135700e-01 0.000000e+00
 -1.020311e-03 9.194248e-02 0.000000e+00
 -4.033478e-02 9.135201e-02 0.000000e+00
 -2.130098e-02 6.546935e-02 0.000000e+00
 -7.097031e-02 1.652556e-02 0.000000e+00
 -1.450549e-01 2.324770e-02 0.000000e+00
 -7.894653e-03 1.080408e-01 0.000000e+00
 -6.082918e-03 1.173730e-01 0.000000e+00
 -8.327046e-02 1.530335e-02 0.000000e+00
 -9.837070e-02 1.950675e-02 0.000000e+00
 -2.042067e-01 3.270169e-02 0.000000e+00
 -5.888129e-02 7.869432e-03 0.000000e+00
 -2.594266e-02 1.735157e-04 0.000000e+00
 -6.782979e-04 1.304032e-01 0.000000e+00
 -3.433176e-03 5.605880e-02 0.000000e+00
 -1.801995e-02 3.784938e-02 0.000000e+00
 -1.167259e-03 1.301820e-01 0.000000e+00
 -6.927186e-02 4.144894e-03 0.000000e+00
 -7.819753e-02 4.501444e-02 0.000000e+00
 -7.256889e-02 1.020583e-02 0.000000e+00
 -6.197694e-02 3.110278e-03 0.000000e+00
 -1.304474e-02 9.406676e-02 0.000000e+00
 -1.073664e-03 5.545575e-02 0.000000e+00
 -2.161119e-02 4.547955e-02 0.000000e+00
 -1.124731e-02 1.007760e-01 0.000000e+00
 -2.820465e-02 2.154694e-02 0.000000e+00
 -1.709767e-02 6.722342e-02 0.000000e+00
 -1.381268e-01 2.526356e-02 0.000000e+00
 -2.881023e-02 1.310275e-02 0.000000e+00
 -2.820451e-02 -7.924680e-03 0.000000e+00
 -1.602053e-02 9.454130e-02 0.000000e+00
 -6.119554e-03 5.513294e-02 0.000000e+00
 -5.664771e-02 3.048466e-02 0.000000e+00
 -5.105526e-02 2.139097e-02 0.000000e+00
 -1.116626e-01 5.615337e-03 0.000000e+00
 -1.592894e-01 1.210145e-02 0.000000e+00
 -3.871210e-02 4.633403e-03 0.000000e+00
 -2.634190e-02 1.574881e-01 0.000000e+00
 -3.767686e-02 1.532049e-02 0.000000e+00
 -2.666167e-03 1.241445e-01 0.000000e+00
 -4.439275e-03 1.395776e-01 0.000000e+00
 -5.935057e-02 2.347896e-03 0.000000e+00
 -3.402612e-03 1.251122e-01 0.000000e+00
 -7.229213e-03 8.631521e-02 0.000000e+00
 -7.555625e-02 1.770404e-02 0.000000e+00
 -3.295378e-04 1.065382e-01 0.000000e+00
 -2.723389e-04 1.310678e-01 0.000000e+00
 -3.030417e-03 9.182811e-02 0.000000e+00
 -4.285733e-02 3.416840e-02 0.000000e+00
 -3.036831e-02 2.917855e-02 0.000000e+00
 -1.533505e-01 7.702264e-02 0.000000e+00
 -1.909927e-01 1.227664e-02 0.000000e+00
 -8.705843e-02 2.105009e-02 0.000000e+00
 -9.704349e-02 2.619390e-02 0.000000e+00
 -3.091978e-02 1.827827e-02 0.000000e+00
 -5.638178e-02 6.842439e-03 0.000000e+00
 -3.665507e-02 2.423260e-02 0.000000e+00
 -8.875564e-03 8.365460e-02 0.000000e+00
 -1.650241e-01 7.432407e-03 0.000000e+00
 -1.476219e-02 6.921403e-02 0.000000e+00
 -9.023281e-02 7.299061e-03 0.000000e+00
 -1.206207e-02 6.469365e-02 0.000000e+00
 -2.149594e-02 5.796174e-02 0.000000e+00
 -1.289264e-03 1.200029e-01 0.000000e+00
 -1.443070e-01 6.811632e-03 0.000000e+00
 -1.795906e-03 1.293661e-01 0.000000e+00
 -4.645034e-03 9.815819e-02 0.000000e+00
 -3.648466e-03 1.073524e-01 0.000000e+00
 -5.457815e-03 8.429426e-02 0.000000e+00
 -8.616592e-03 7.304837e-02 0.000000e+00
 -9.362233e-02 2.831838e-02 0.000000e+00
 -2.236030e-03 1.094761e-01 0.000000e+00
 -5.601284e-03 6.627764e-02 0.000000e+00
 -6.272793e-02 2.105669e-03 0.000000e+00
 -1.792249e-03 9.776651e-02 0.000000e+00
 -9.263503e-02 1.252221e-01 0.000000e+00
 -4.336516e-02 8.422511e-03 0.000000e+00
 -9.888658e-02 6.340983e-03 0.000000e+00
 -3.856216e-02 -2.543768e-04 0.000000e+00
 -4.390398e-02 2.604761e-02 0.000000e+00
 -1.211689e-01 2.840457e-03 0.000000e+00
 -4.295511e-02 7.866719e-03 0.000000e+00
 -8.489990e-02 1.377136e-03 0.000000e+00
 -8.884398e-02 1.904304e-03 0.000000e+00
 0.000000e+00 0.000000e+00 0.000000e+00
 -1.855781e-01 1.501496e-02 0.000000e+00
 -2.040170e-01 4.950238e-02 0.000000e+00
 0.000000e+00 0.000000e+00 0.000000e+00
 -4.363009e-03 1.007144e-02 0.000000e+00
 -2.079780e-03 2.071550e-03 0.000000e+00
 0.000000e+00 0.000000e+00 0.000000e+00
 -1.949082e-01 5.970099e-02 0.000000e+00
 -1.895540e-01 1.166152e-01 0.000000e+00
 -4.225953e-05 8.763360e-02 0.000000e+00
 5.294359e-05 8.770660e-02 0.000000e+00
 0.000000e+00 0.000000e+00 0.000000e+00
 1.143329e-04 1.296548e-01 0.000000e+00
 4.089773e-05 6.855863e-02 0.000000e+00
 1.102527e-04 1.153894e-01 0.000000e+00
 -2.919147e-05 6.841206e-02 0.000000e+00
 0.000000e+00 0.000000e+00 0.000000e+00
 -8.250885e-05 1.245580e-01 0.000000e+00
 -1.236493e-04 1.011063e-01 0.000000e+00
 -2.424952e-02 1.466209e-02 0.000000e+00
 -2.118416e-02 5.747791e-03 0.000000e+00
 -9.920497e-03 4.143422e-03 0.000000e+00
 -4.618348e-04 1.026343e-01 0.000000e+00
 -2.808659e-04 1.033912e-01 0.000000e+00
 0.000000e+00 0.000000e+00 0.000000e+00
 -3.173982e-02 4.891968e-03 0.000000e+00
 0.000000e+00 0.000000e+00 0.000000e+00
 0.000000e+00 0.000000e+00 0.000000e+00
 -6.104156e-02 4.114590e-03 0.000000e+00
 -4.062133e-02 1.277295e-03 0.000000e+00
 -4.944618e-02 2.829086e-03 0.000000e+00
 -1.298262e-03 1.272767e-01 0.000000e+00
 -3.690272e-04 8.245765e-02 0.000000e+00
 -5.253152e-04 8.121272e-02 0.000000e+00
 0.000000e+00 0.000000e+00 0.000000e+00
 -2.951614e-02 2.745335e-02 0.000000e+00
 -1.590143e-02 2.385225e-02 0.000000e+00
 -4.422350e-02 4.268541e-03 0.000000e+00
 0.000000e+00 0.000000e+00 0.000000e+00
 -4.244433e-02 9.479197e-04 0.000000e+00
 0.000000e+00 0.000000e+00 0.000000e+00
 -5.729957e-02 1.722465e-03 0.000000e+00
 -5.512092e-02 1.393989e-03 0.000000e+00
 0.000000e+00 0.000000e+00 0.000000e+00
 -4.175989e-02 2.519930e-03 0.000000e+00
 -5.576236e-02 2.018621e-03 0.000000e+00
 -3.597151e-02 -1.521751e-03 0.000000e+00
 -5.614825e-02 1.655797e-03 0.000000e+00
 -5.259894e-02 1.447022e-03 0.000000e+00
 0.000000e+00 0.000000e+00 0.000000e+00
 -7.210770e-02 6.850718e-03 0.000000e+00
 -7.171550e-02 3.394637e-03 0.000000e+00
 -1.323227e-01 4.663664e-03 0.000000e+00
 -1.076847e-01 2.118544e-03 0.000000e+00
 -7.144644e-02 9.457262e-04 0.000000e+00
 -2.919692e-03 1.211789e-01 0.000000e+00
 -6.435176e-04 7.373101e-02 0.000000e+00
 -1.162519e-03 1.026795e-01 0.000000e+00
 -8.302431e-04 7.162457e-02 0.000000e+00
 0.000000e+00 0.000000e+00 0.000000e+00
 -3.362433e-02 9.340189e-03 0.000000e+00
 -3.538866e-02 -2.414371e-04 0.000000e+00
 -3.051831e-02 6.724724e-03 0.000000e+00
 -6.433611e-03 1.236291e-01 0.000000e+00
 -5.138409e-02 1.513405e-01 0.000000e+00
 0.000000e+00 0.000000e+00 0.000000e+00
 -1.020186e-02 1.479826e-01 0.000000e+00
 -1.408894e-03 1.053241e-01 0.000000e+00
 -2.707041e-03 1.342487e-01 0.000000e+00
 -5.978430e-04 9.063101e-02 0.000000e+00
 -9.254053e-04 1.012861e-01 0.000000e+00
 -4.410670e-04 8.940386e-02 0.000000e+00
 0.000000e+00 0.000000e+00 0.000000e+00
 -1.360665e-05 7.852253e-02 0.000000e+00
 -4.287279e-05 1.131660e-01 0.000000e+00
 4.072489e-04 9.925489e-02 0.000000e+00
 -1.381864e-01 4.689769e-03 0.000000e+00
 -7.307665e-02 8.425607e-04 0.000000e+00
 -1.335727e-01 6.508573e-03 0.000000e+00
 -6.812843e-02 1.567479e-03 0.000000e+00
 -1.166121e-01 4.365075e-03 0.000000e+00
 -8.236288e-02 8.924817e-03 0.000000e+00
 -7.370503e-02 2.375241e-03 0.000000e+00
 -7.734420e-02 3.716829e-03 0.000000e+00
 -1.666617e-01 9.917199e-03 0.000000e+00
 -1.086504e-01 2.261960e-03 0.000000e+00
 -1.357230e-01 4.018351e-03 0.000000e+00
 -9.462251e-02 6.894872e-03 0.000000e+00
 -7.260898e-02 2.088367e-03 0.000000e+00
 0.000000e+00 0.000000e+00 0.000000e+00
 -1.147932e-01 2.563383e-03 0.000000e+00
 0.000000e+00 0.000000e+00 0.000000e+00
 -1.405675e-03 7.099858e-02 0.000000e+00
 -1.134872e-03 7.420771e-02 0.000000e+00
 0.000000e+00 0.000000e+00 0.000000e+00
 -7.219921e-03 1.128621e-01 0.000000e+00
 -6.092215e-03 1.171686e-01 0.000000e+00
 -9.537185e-03 1.047795e-01 0.000000e+00
 -1.535062e-04 9.936559e-02 0.000000e+00
 -3.379362e-04 1.003130e-01 0.000000e+00
 0.000000e+00 0.000000e+00 0.000000e+00
 -1.122917e-02 9.207152e-02 0.000000e+00
 -3.062798e-03 6.381000e-02 0.000000e+00
 -5.257738e-03 8.729088e-02 0.000000e+00
 -5.815592e-02 1.953106e-02 0.000000e+00
 -5.377192e-02 1.943236e-02 0.000000e+00
 -7.267816e-02 1.647437e-02 0.000000e+00
 -1.475105e-01 5.320408e-03 0.000000e+00
 -1.376918e-01 3.997670e-03 0.000000e+00
 0.000000e+00 0.000000e+00 0.000000e+00
 -3.375949e-03 5.704356e-02 0.000000e+00
 0.000000e+00 0.000000e+00 0.000000e+00
 -6.791800e-03 5.050768e-02 0.000000e+00
 -5.953804e-03 6.053976e-02 0.000000e+00
 0.000000e+00 0.000000e+00 0.000000e+00
 6.269564e-05 5.925159e-02 0.000000e+00
 6.886027e-05 5.455143e-02 0.000000e+00
 6.069887e-04 5.328444e-02 0.000000e+00
 1.517357e-04 1.182509e-01 0.000000e+00
 2.238778e-04 8.363571e-02 0.000000e+00
 4.326054e-04 9.627099e-02 0.000000e+00
 -1.262701e-01 6.516237e-03 0.000000e+00
 -1.150045e-01 3.606413e-03 0.000000e+00
 -8.705970e-02 1.627322e-03 0.000000e+00
 -8.295151e-02 1.825378e-03 0.000000e+00
 0.000000e+00 0.000000e+00 0.000000e+00
 -3.873408e-02 2.866980e-02 0.000000e+00
 -3.491598e-02 2.574956e-02 0.000000e+00
 -5.392404e-02 2.905345e-02 0.000000e+00
 -5.687412e-02 2.027066e-02 0.000000e+00
 -5.246248e-02 1.995536e-02 0.000000e+00
 -1.569100e-04 1.272285e-01 0.000000e+00
 1.413803e-04 1.303135e-01 0.000000e+00
 1.320118e-04 1.155436e-01 0.000000e+00
 -3.236258e-02 -4.435264e-03 0.000000e+00
 -3.168161e-02 -1.346680e-04 0.000000e+00
 -3.011291e-02 -7.467408e-03 0.000000e+00
 -3.449123e-02 1.363668e-02 0.000000e+00
 -3.042642e-02 9.740155e-03 0.000000e+00
 -1.595492e-02 5.062400e-02 0.000000e+00
 -1.161632e-02 5.491018e-02 0.000000e+00
 -1.531341e-02 4.981260e-02 0.000000e+00
 -1.125886e-01 9.625977e-03 0.000000e+00
 -1.067399e-01 1.136352e-02 0.000000e+00
 -1.150337e-01 2.662580e-02 0.000000e+00
 -7.019651e-02 2.772763e-02 0.000000e+00
 -8.819660e-02 2.645773e-02 0.000000e+00
 -1.185491e-01 1.420760e-02 0.000000e+00
 -8.094345e-02 1.883135e-02 0.000000e+00
 -1.033299e-01 1.571375e-02 0.000000e+00
 -7.307382e-03 6.189028e-02 0.000000e+00
 -9.875605e-03 5.741382e-02 0.000000e+00
 -8.117176e-03 5.306551e-02 0.000000e+00
 -6.507813e-04 1.246429e-01 0.000000e+00
 -2.981236e-04 1.284114e-01 0.000000e+00
 -6.218077e-02 1.504971e-02 0.000000e+00
 -6.638999e-02 1.239491e-02 0.000000e+00
 -9.504068e-02 2.069428e-02 0.000000e+00
 -6.453467e-03 2.189900e-02 0.000000e+00
 -5.998218e-03 3.403957e-02 0.000000e+00
 0.000000e+00 0.000000e+00 0.000000e+00
 -9.250336e-02 1.372386e-02 0.000000e+00
 -2.655448e-02 5.347299e-02 0.000000e+00
 -3.478421e-02 3.236121e-02 0.000000e+00
 -2.849032e-02 5.030481e-02 0.000000e+00
 -4.889954e-02 1.618475e-02 0.000000e+00
 -6.696400e-02 2.272254e-02 0.000000e+00
 -3.780055e-02 2.000431e-02 0.000000e+00
 -2.498747e-02 5.827834e-03 0.000000e+00
 -2.724276e-02 1.118111e-02 0.000000e+00
 -3.041785e-02 5.491401e-03 0.000000e+00
 -6.096324e-04 1.198523e-01 0.000000e+00
 3.204571e-05 1.312850e-01 0.000000e+00
 -1.541848e-03 7.125346e-02 0.000000e+00
 -2.636309e-03 8.226759e-02 0.000000e+00
 -2.305455e-03 6.070561e-02 0.000000e+00
 -6.492611e-03 7.569005e-02 0.000000e+00
 -7.684767e-03 5.614078e-02 0.000000e+00
 -8.966517e-03 6.174640e-02 0.000000e+00
 -1.238428e-02 9.810888e-02 0.000000e+00
 -1.610562e-02 7.579336e-02 0.000000e+00
 -1.756954e-02 7.461573e-02 0.000000e+00
 -3.162999e-02 4.121654e-02 0.000000e+00
 -2.885865e-02 3.010767e-02 0.000000e+00
 -2.232515e-02 4.288532e-02 0.000000e+00
 -1.333137e-01 1.109852e-01 0.000000e+00
 -1.257749e-01 1.607835e-01 0.000000e+00
 -1.161155e-01 4.796916e-03 0.000000e+00
 0.000000e+00 0.000000e+00 0.000000e+00
 -1.337714e-01 1.366596e-02 0.000000e+00
 -1.390283e-01 8.352129e-03 0.000000e+00
 -8.002586e-02 1.663383e-02 0.000000e+00
 -5.219194e-02 2.379005e-02 0.000000e+00
 -5.566595e-02 2.173053e-02 0.000000e+00
 -1.327857e-02 8.591334e-02 0.000000e+00
 -1.798762e-02 6.011677e-02 0.000000e+00
 -4.209093e-03 7.801716e-02 0.000000e+00
 -4.741615e-03 8.869528e-02 0.000000e+00
 -3.405967e-03 1.032202e-01 0.000000e+00
 -2.065990e-02 6.276366e-02 0.000000e+00
 -2.583865e-02 9.555617e-02 0.000000e+00
 -2.916650e-02 5.855176e-02 0.000000e+00
 -6.561210e-02 2.183470e-02 0.000000e+00
 -4.942804e-02 2.411999e-02 0.000000e+00
 -6.507135e-02 2.503055e-02 0.000000e+00
 -5.192789e-02 1.755514e-02 0.000000e+00
 -5.029066e-02 2.111126e-02 0.000000e+00
 -7.233831e-02 1.356257e-02 0.000000e+00
 -7.584074e-02 2.951899e-02 0.000000e+00
 -6.279826e-02 2.819250e-02 0.000000e+00
 -4.944140e-02 2.975231e-02 0.000000e+00
 -3.019665e-02 -5.986343e-03 0.000000e+00
 -2.701291e-02 -1.414530e-03 0.000000e+00
 -2.623767e-02 -5.051267e-03 0.000000e+00
 -1.492762e-01 2.797936e-02 0.000000e+00
 -1.565949e-01 3.623289e-02 0.000000e+00
 -5.122254e-02 8.640556e-03 0.000000e+00
 -4.309944e-02 3.863431e-04 0.000000e+00
 -5.821089e-02 4.320288e-03 0.000000e+00
 -6.149996e-02 2.219245e-03 0.000000e+00
 -4.912635e-02 1.176996e-03 0.000000e+00
 -2.815163e-02 2.445746e-02 0.000000e+00
 -2.598610e-02 4.612165e-02 0.000000e+00
 -2.495517e-02 4.198643e-02 0.000000e+00
 -2.719266e-02 1.619925e-02 0.000000e+00
 -3.449251e-02 1.344831e-02 0.000000e+00
 -2.246096e-03 5.321805e-02 0.000000e+00
 -3.619888e-03 5.454019e-02 0.000000e+00
 -4.058360e-03 1.055032e-01 0.000000e+00
 -4.460458e-03 7.602521e-02 0.000000e+00
 -3.374754e-03 9.616097e-02 0.000000e+00
 -5.437253e-03 1.110900e-01 0.000000e+00
 -7.736463e-03 9.814724e-02 0.000000e+00
 -5.387631e-03 1.188595e-01 0.000000e+00
 -1.114723e-03 5.980915e-02 0.000000e+00
 -5.129705e-02 1.214316e-02 0.000000e+00
 -4.274636e-02 2.585330e-02 0.000000e+00
 -5.133723e-02 1.695776e-02 0.000000e+00
 -1.786271e-02 5.414404e-02 0.000000e+00
 -3.163932e-02 3.979556e-02 0.000000e+00
 -2.115681e-03 1.176562e-01 0.000000e+00
 -2.233987e-03 1.252785e-01 0.000000e+00
 -3.330261e-03 6.984228e-02 0.000000e+00
 -2.004723e-03 9.197500e-02 0.000000e+00
 -2.144639e-03 6.995313e-02 0.000000e+00
 -3.346914e-02 2.170122e-02 0.000000e+00
 -4.876888e-02 1.540797e-02 0.000000e+00
 -6.550298e-02 3.827754e-03 0.000000e+00
 -5.301189e-02 5.434590e-03 0.000000e+00
 -5.973500e-02 7.198078e-03 0.000000e+00
 -2.070386e-02 1.306940e-01 0.000000e+00
 -3.950808e-02 1.335087e-01 0.000000e+00
 -1.314672e-01 4.322789e-02 0.000000e+00
 -7.768986e-02 1.923426e-03 0.000000e+00
 0.000000e+00 0.000000e+00 0.000000e+00
 -5.584328e-02 1.114549e-02 0.000000e+00
 -2.483939e-02 3.813221e-02 0.000000e+00
 -2.136682e-02 5.371564e-02 0.000000e+00
 -2.554166e-02 3.540694e-02 0.000000e+00
 -1.247544e-02 7.720217e-02 0.000000e+00
 -1.567973e-02 8.213898e-02 0.000000e+00
 -1.995213e-02 7.054633e-02 0.000000e+00
 -2.330624e-03 1.117308e-01 0.000000e+00
 -1.267737e-03 1.218307e-01 0.000000e+00
 -1.485405e-03 1.299201e-01 0.000000e+00
 -5.068451e-02 7.237791e-03 0.000000e+00
 -5.755360e-02 2.178957e-02 0.000000e+00
 -7.077687e-02 2.351680e-02 0.000000e+00
 -9.405512e-03 7.504669e-02 0.000000e+00
 -1.016229e-02 8.604603e-02 0.000000e+00
 -1.913919e-03 6.268251e-02 0.000000e+00
 -1.586432e-03 6.684191e-02 0.000000e+00
 0.000000e+00 0.000000e+00 0.000000e+00
 -1.351753e-02 6.698298e-02 0.000000e+00
 -1.792519e-02 5.013783e-02 0.000000e+00
 -4.559308e-02 2.107509e-02 0.000000e+00
 -3.331066e-02 1.831794e-02 0.000000e+00
 -1.774836e-02 7.801611e-02 0.000000e+00
 -2.149123e-02 6.224308e-02 0.000000e+00
 -1.710724e-02 8.045967e-02 0.000000e+00
 -5.697175e-02 2.230450e-02 0.000000e+00
 -4.415691e-02 2.738030e-02 0.000000e+00
 -1.809034e-01 2.067477e-02 0.000000e+00
 -1.785685e-01 1.799999e-02 0.000000e+00
 -1.431421e-01 2.463934e-02 0.000000e+00
 -4.100773e-02 3.696781e-03 0.000000e+00
 -2.728101e-02 2.424214e-03 0.000000e+00
 -1.139998e-01 2.485118e-02 0.000000e+00
 -1.754159e-01 2.514855e-02 0.000000e+00
 -3.423145e-02 -4.018143e-03 0.000000e+00
 -9.736161e-02 3.596991e-02 0.000000e+00
 -1.120302e-01 6.569601e-02 0.000000e+00
 0.000000e+00 0.000000e+00 0.000000e+00
 -1.340811e-02 6.258484e-02 0.000000e+00
 -1.147128e-02 8.289020e-02 0.000000e+00
 -7.655600e-03 9.450490e-02 0.000000e+00
 -9.947092e-03 1.068064e-01 0.000000e+00
 -4.684962e-03 5.312822e-02 0.000000e+00
 -4.785127e-03 6.058933e-02 0.000000e+00
 -1.354555e-01 2.006024e-02 0.000000e+00
 -1.200972e-01 2.529499e-02 0.000000e+00
 -1.571264e-01 1.804960e-02 0.000000e+00
 -7.263034e-02 2.985195e-02 0.000000e+00
 -1.203370e-01 2.679815e-02 0.000000e+00
 -9.600430e-02 2.866155e-02 0.000000e+00
 -1.004637e-01 1.133247e-02 0.000000e+00
 -1.055231e-01 1.079170e-02 0.000000e+00
 -1.786140e-01 9.516850e-03 0.000000e+00
 -1.739086e-01 1.569699e-02 0.000000e+00
 -9.783189e-02 2.296355e-02 0.000000e+00
 -4.230099e-02 1.780798e-02 0.000000e+00
 -6.285129e-02 1.565170e-01 0.000000e+00
 -6.151060e-02 1.117879e-01 0.000000e+00
 -2.418703e-03 1.333718e-01 0.000000e+00
 -3.802581e-03 1.339861e-01 0.000000e+00
 -4.035213e-03 1.209302e-01 0.000000e+00
 -9.357276e-04 1.223982e-01 0.000000e+00
 -1.092253e-02 1.298284e-01 0.000000e+00
 -5.752904e-03 1.350485e-01 0.000000e+00
 -6.051488e-02 2.477842e-03 0.000000e+00
 -6.273126e-02 2.314981e-03 0.000000e+00
 -5.916506e-02 1.872654e-03 0.000000e+00
 -2.896570e-03 1.088836e-01 0.000000e+00
 -4.904916e-03 1.205086e-01 0.000000e+00
 -2.176146e-03 1.253306e-01 0.000000e+00
 -2.479872e-03 1.273973e-01 0.000000e+00
 -3.669721e-03 1.220732e-01 0.000000e+00
 -6.010836e-03 5.423166e-02 0.000000e+00
 -4.514142e-03 6.036237e-02 0.000000e+00
 -5.233803e-03 1.003062e-01 0.000000e+00
 -4.026039e-02 2.564706e-02 0.000000e+00
 -5.467495e-02 2.178273e-02 0.000000e+00
 -9.370207e-02 1.208680e-02 0.000000e+00
 -9.017546e-02 1.136623e-02 0.000000e+00
 -7.341637e-02 1.746179e-02 0.000000e+00
 -9.975809e-04 1.021306e-01 0.000000e+00
 -6.856722e-04 7.494292e-02 0.000000e+00
 -6.764995e-04 1.308764e-01 0.000000e+00
 -1.328887e-03 1.179270e-01 0.000000e+00
 -4.551970e-02 6.092224e-02 0.000000e+00
 -6.424113e-02 6.985125e-02 0.000000e+00
 -9.277417e-02 8.262594e-02 0.000000e+00
 -5.899246e-02 4.028166e-02 0.000000e+00
 -2.034054e-01 1.899049e-02 0.000000e+00
 -3.452687e-02 1.024513e-02 0.000000e+00
 -1.329954e-01 1.684073e-02 0.000000e+00
 -3.187622e-02 2.228430e-02 0.000000e+00