<?xml version="1.0"?>
<VTKFile type="UnstructuredGrid"  version="0.1"  >
<UnstructuredGrid>
<Piece  NumberOfPoints="505" NumberOfCells="928">
<Points>
<DataArray  type="Float32"  NumberOfComponents="3"  format="ascii">
0 0 0
1 0 0
0 1 0
1 0.5 0
0.5 0.5 0
0.5 1 0
0.1 0 0
0.2 0 0
0.3 0 0
0.4 0 0
0.5 0 0
0.6 0 0
0.7 0 0
0.8 0 0
0.9 0 0
0 0.9 0
0 0.8 0
0 0.7 0
0 0.6 0
0 0.5 0
0 0.4 0
0 0.3 0
0 0.2 0
0 0.1 0
0.9 0.5 0
0.8 0.5 0
0.7 0.5 0
0.6 0.5 0
0.5 0.6 0
0.5 0.7 0
0.5 0.8 0
0.5 0.9 0
0.1 1 0
0.2 1 0
0.3 1 0
0.4 1 0
1 0.1 0
1 0.2 0
1 0.3 0
1 0.4 0
0.300178 0.296564 0
0.247566 0.664879 0
0.639694 0.259804 0
0.06564 0.06472 0
0.04439 0.954144 0
0.932418 0.064715 0
0.951013 0.456419 0
0.437622 0.939659 0
0.195334 0.464441 0
0.483382 0.329596 0
0.834786 0.236295 0
0.307228 0.81139 0
0.178229 0.173372 0
0.366998 0.134199 0
0.547485 0.14214 0
0.124832 0.74927 0
0.160163 0.896658 0
0.342556 0.535243 0
0.147651 0.342018 0
0.729803 0.127878 0
0.725981 0.357775 0
0.121369 0.600441 0
0.372954 0.70814 0
0.908503 0.151525 0
0.89851 0.333305 0
0.556275 0.400898 0
0.259184 0.092178 0
0.46329 0.194362 0
0.423773 0.869712 0
0.22823 0.818162 0
0.081292 0.144905 0
0.082979 0.831935 0
0.549999 0.065419 0
0.371537 0.407588 0
0.642628 0.097865 0
0.459835 0.086595 0
0.108565 0.418567 0
0.273082 0.902112 0
0.256598 0.556659 0
0.11951 0.509541 0
0.234147 0.370527 0
0.097453 0.253261 0
0.638438 0.342389 0
0.554656 0.224779 0
0.373432 0.237603 0
0.339663 0.62579 0
0.27079 0.747786 0
0.733958 0.266592 0
0.928527 0.244458 0
0.853116 0.071497 0
0.818426 0.404817 0
0.280194 0.200604 0
0.417859 0.565185 0
0.147241 0.079056 0
0.389149 0.789957 0
0.42808 0.654642 0
0.343469 0.059202 0
0.086765 0.684153 0
0.162043 0.675011 0
0.809252 0.14201 0
0.364337 0.928607 0
0.077532 0.916553 0
0.159064 0.807906 0
0.302124 0.454032 0
0.205909 0.272176 0
0.449664 0.407415 0
0.66041 0.423241 0
0.562201 0.303789 0
0.802658 0.320211 0
0.614551 0.182931 0
0.390944 0.331035 0
0.687136 0.18846 0
0.070577 0.342498 0
0.741087 0.437361 0
0.176989 0.547528 0
0.710251 0.07409 0
0.192845 0.608574 0
0.171114 0.398277 0
0.058959 0.753084 0
0.904 0.425508 0
0.438039 0.730373 0
0.057223 0.475897 0
0.058502 0.552106 0
0.330493 0.750997 0
0.312295 0.699131 0
0.684882 0.307111 0
0.053312 0.627311 0
0.198798 0.743695 0
0.392326 0.069953 0
0.351519 0.860283 0
0.397134 0.477694 0
0.319385 0.371198 0
0.767351 0.069505 0
0.441954 0.271171 0
0.759504 0.192785 0
0.855661 0.457701 0
0.500847 0.264652 0
0.916209 0.0323575 0
0.966209 0.0323575 0
0.95 0 0
0.578137 0.450449 0
0.528137 0.450449 0
0.55 0.5 0
0.03282 0.08236 0
0.03282 0.03236 0
0 0.05 0
0.502969 0.404157 0
0.474832 0.453708 0
0.468811 0.91983 0
0.468811 0.96983 0
0.5 0.95 0
0.072195 0.977072 0
0.022195 0.977072 0
0.05 1 0
0.022195 0.927072 0
0 0.95 0
0.060961 0.935348 0
0.038766 0.908276 0
0.106441 0.071888 0
0.123621 0.039528 0
0.08282 0.03236 0
0.0414895 0.815967 0
0.0414895 0.865968 0
0 0.85 0
0.173621 0.039528 0
0.15 0 0
0.05 0 0
0.301327 0.07569 0
0.321735 0.029601 0
0.279592 0.046089 0
0.070969 0.792509 0
0.0294795 0.776542 0
0.0294795 0.726542 0
0 0.75 0
0.114267 0.111981 0
0.073466 0.104813 0
0.229592 0.046089 0
0.25 0 0
0.371735 0.029601 0
0.35 0 0
0.479917 0.0432975 0
0.429918 0.0432975 0
0.45 0 0
0.461562 0.140479 0
0.413416 0.110397 0
0.415144 0.16428 0
0.574999 0.0327095 0
0.525 0.0327095 0
0.55 0 0
0.596313 0.081642 0
0.621314 0.0489325 0
0.927507 0.440964 0
0.902 0.462754 0
0.925507 0.47821 0
0.0700385 0.655732 0
0.026656 0.663655 0
0.0433825 0.692076 0
0.026656 0.613655 0
0 0.65 0
0.276766 0.370862 0
0.309781 0.333881 0
0.267162 0.333545 0
0.458929 0.582593 0
0.458929 0.532593 0
0.5 0.55 0
0.422969 0.609913 0
0.46404 0.627321 0
0.43306 0.692508 0
0.46902 0.715186 0
0.46404 0.677321 0
0.46902 0.765186 0
0.5 0.75 0
0.180082 0.948329 0
0.130082 0.948329 0
0.15 1 0
0.87983 0.441605 0
0.87783 0.478851 0
0.975507 0.42821 0
0.975507 0.47821 0
1 0.45 0
0.676439 0.0859775 0
0.705125 0.037045 0
0.671314 0.0489325 0
0.779756 0.421089 0
0.770544 0.46868 0
0.809213 0.452408 0
0.738801 0.0717975 0
0.733675 0.0347525 0
0.95 0.5 0
0.720544 0.46868 0
0.75 0.5 0
0.029251 0.526053 0
0.029251 0.576053 0
0 0.55 0
0.089006 0.530824 0
0.0899355 0.576273 0
0.12044 0.554991 0
0.461886 0.884856 0
0.461886 0.834856 0
0.5 0.85 0
0.089571 0.380533 0
0.0352885 0.371249 0
0.0542825 0.409284 0
0.918515 0.197991 0
0.964263 0.222229 0
0.954252 0.175762 0
0.630205 0.46162 0
0.680205 0.46162 0
0.65 0.5 0
0.0352885 0.321249 0
0 0.35 0
0.0487265 0.226631 0
0.0487265 0.276631 0
0 0.25 0
0.286541 0.951056 0
0.236541 0.951056 0
0.25 1 0
0.382169 0.964303 0
0.332168 0.964303 0
0.35 1 0
0.966209 0.0823575 0
1 0.05 0
0.876558 0.0357485 0
0.826558 0.0357485 0
0.85 0 0
0.710547 0.227526 0
0.663415 0.224132 0
0.686826 0.263198 0
0.964263 0.272229 0
1 0.25 0
0.40098 0.934133 0
0.418811 0.96983 0
0.45 1 0
0.326813 0.219104 0
0.290186 0.248584 0
0.336805 0.267084 0
0.243052 0.23639 0
0.253043 0.28437 0
0.224721 0.582616 0
0.220205 0.636726 0
0.252082 0.610769 0
0.92046 0.10812 0
0.954252 0.125762 0
0.66166 0.32475 0
0.662288 0.283458 0
0.639066 0.301096 0
0.949255 0.366653 0
0.949255 0.316653 0
1 0.35 0
0.291542 0.723459 0
0.27993 0.682005 0
0.259178 0.706333 0
0.394055 0.89916 0
0.430698 0.904686 0
0.531524 0.28422 0
0.492115 0.297124 0
0.522791 0.316692 0
0.040646 0.122453 0
0.040646 0.172453 0
0 0.15 0
1 0.15 0
0.151681 0.262718 0
0.192069 0.222774 0
0.137841 0.213317 0
0.558428 0.264284 0
0.600947 0.281797 0
0.597175 0.242291 0
0.508973 0.20957 0
0.551071 0.183459 0
0.505387 0.168251 0
0.118847 0.906605 0
0.088766 0.958276 0
0.3123 0.881198 0
0.329373 0.835836 0
0.290155 0.856751 0
0.18042 0.709353 0
0.223182 0.704287 0
0.204805 0.669945 0
0.114037 0.464054 0
0.157422 0.486991 0
0.15195 0.441504 0
0.279361 0.505346 0
0.248729 0.459236 0
0.225966 0.51055 0
0.423399 0.442555 0
0.448567 0.488847 0
0.892767 0.068106 0
0.65 0 0
0.901255 0.379406 0
0.952 0.412754 0
0.858877 0.146767 0
0.822019 0.189153 0
0.871644 0.19391 0
0.14825 0.528535 0
0.186162 0.505985 0
0.178931 0.775801 0
0.161815 0.746482 0
0.141948 0.778588 0
0.29813 0.591225 0
0.34111 0.580516 0
0.299577 0.545951 0
0.913519 0.288882 0
0.881657 0.240376 0
0.866648 0.2848 0
0.664882 0.143162 0
0.708469 0.158169 0
0.686215 0.112871 0
0.768308 0.293401 0
0.818722 0.278253 0
0.784372 0.251443 0
0.407693 0.254387 0
0.452622 0.232766 0
0.418361 0.215983 0
0.559238 0.352343 0
0.519829 0.365247 0
0.269689 0.146391 0
0.323596 0.167402 0
0.313091 0.113188 0
0.367897 0.0645775 0
0.396163 0.0349765 0
0.220028 0.321352 0
0.17678 0.307097 0
0.190899 0.356272 0
0.584604 0.203855 0
0.581018 0.162535 0
0.250656 0.860137 0
0.267729 0.814776 0
0.359821 0.770477 0
0.31886 0.781193 0
0.348189 0.800674 0
0.124404 0.679582 0
0.141706 0.637726 0
0.104067 0.642297 0
0.216622 0.899385 0
0.203213 0.085617 0
0.162735 0.126214 0
0.218707 0.132775 0
0.0893725 0.199083 0
0.129761 0.159139 0
0.121022 0.819921 0
0.103905 0.790602 0
0.193647 0.813034 0
0.159614 0.852282 0
0.194196 0.85741 0
0.650843 0.185696 0
0.628589 0.140398 0
0.504917 0.076007 0
0.50366 0.114367 0
0.548742 0.103779 0
0.378761 0.595487 0
0.380208 0.550214 0
0.466523 0.368506 0
0.783675 0.0347525 0
0.75 0 0
0.595056 0.120002 0
0.20263 0.384402 0
0.183224 0.431359 0
0.214741 0.417484 0
0.084015 0.29788 0
0.109114 0.342258 0
0.122552 0.29764 0
0.370334 0.82512 0
0.387646 0.864998 0
0.406461 0.829835 0
0.355164 0.351116 0
0.345461 0.389393 0
0.38124 0.369312 0
0.177444 0.641792 0
0.157107 0.604507 0
0.0286115 0.437949 0
0.0286115 0.487949 0
0 0.45 0
0.184917 0.578051 0
0.216794 0.552094 0
0.310754 0.412615 0
0.268135 0.41228 0
0.13984 0.408422 0
0.159382 0.370147 0
0.128108 0.380293 0
0.784378 0.167398 0
0.797145 0.21454 0
0.649424 0.382815 0
0.693196 0.390508 0
0.682209 0.350082 0
0.471401 0.267911 0
0.482069 0.229507 0
0.600319 0.323089 0
0.597356 0.371644 0
0.370215 0.185901 0
0.420304 0.369225 0
0.410601 0.407502 0
0.5 0.65 0
0.293615 0.645334 0
0.325979 0.66246 0
0.342624 0.703635 0
0.356309 0.666965 0
0.24951 0.782974 0
0.289009 0.779588 0
0.810542 0.362514 0
0.76432 0.338993 0
0.772204 0.381296 0
0.70942 0.286852 0
0.705431 0.332443 0
0.729969 0.312184 0
0.831184 0.106754 0
0.88081 0.111511 0
0.700748 0.430301 0
0.733534 0.397568 0
0.850584 0.326758 0
0.229212 0.186988 0
0.407496 0.52144 0
0.369845 0.506468 0
0.413594 0.760165 0
0.405497 0.719256 0
0.381051 0.749049 0
0.444574 0.794979 0
0.383872 0.640216 0
0.400517 0.681391 0
0.355233 0.0967005 0
0.42608 0.078274 0
0.379662 0.102076 0
0.055907 0.589708 0
0.0873405 0.613876 0
0.072862 0.718619 0
0.0918955 0.751177 0
0.105798 0.716711 0
0.234794 0.74574 0
0.213514 0.780928 0
0.143437 0.712141 0
0.72332 0.190623 0
0.744653 0.160332 0
0.788301 0.105758 0
0.748577 0.0986915 0
0.769527 0.134944 0
0.357928 0.894445 0
0.318709 0.915359 0
0.0802555 0.874244 0
0.121571 0.864297 0
0.32234 0.494638 0
0.349629 0.465863 0
0.384335 0.442641 0
0.336831 0.43081 0
0.608343 0.412069 0
0.527752 0.244716 0
0.858468 0.369061 0
0.627123 0.221367 0
0.382188 0.284319 0
0.345561 0.3138 0
0.437163 0.330315 0
0.746731 0.229689 0
0.149179 0.573985 0
0.720027 0.100984 0
0.810234 0.070501 0
0.861213 0.415162 0
0.827831 0.478851 0
0.85 0.5 0
0.082894 0.447232 0
0.0883665 0.492719 0
0.0578625 0.514002 0
0.300642 0.749391 0
0.351723 0.729569 0
0.321394 0.725064 0
0.416449 0.301103 0
0.462668 0.300384 0
0.837044 0.431259 0
</DataArray>
</Points>
<Cells>
<DataArray  type="UInt32"  Name="connectivity"  format="ascii">
1 138 139 
14 137 139 
45 137 138 
137 138 139 
4 141 142 
27 140 142 
65 140 141 
140 141 142 
0 144 145 
23 143 145 
43 143 144 
143 144 145 
4 141 147 
65 141 146 
105 146 147 
141 146 147 
5 149 150 
31 148 150 
47 148 149 
148 149 150 
2 152 153 
32 151 153 
44 151 152 
151 152 153 
2 152 155 
15 154 155 
44 152 154 
152 154 155 
15 154 157 
44 154 156 
101 156 157 
154 156 157 
6 159 160 
43 158 160 
93 158 159 
158 159 160 
15 162 163 
16 161 163 
71 161 162 
161 162 163 
6 159 165 
7 164 165 
93 159 164 
159 164 165 
[...]
<PointData  Vectors="u"> 
<DataArray  type="Float32"  Name="u"  NumberOfComponents="3" format="ascii">
 0.000000e+00 0.000000e+00 0.000000e+00
 0.000000e+00 0.000000e+00 0.000000e+00
 0.000000e+00 0.000000e+00 0.000000e+00
 0.000000e+00 0.000000e+00 0.000000e+00
 0.000000e+00 0.000000e+00 0.000000e+00
 0.000000e+00 0.000000e+00 0.000000e+00
 0.000000e+00 0.000000e+00 0.000000e+00
 0.000000e+00 0.000000e+00 0.000000e+00
 0.000000e+00 0.000000e+00 0.000000e+00
 0.000000e+00 0.000000e+00 0.000000e+00
 0.000000e+00 0.000000e+00 0.000000e+00
 0.000000e+00 0.000000e+00 0.000000e+00
 0.000000e+00 0.000000e+00 0.000000e+00
 0.000000e+00 0.000000e+00 0.000000e+00
 0.000000e+00 0.000000e+00 0.000000e+00
 0.000000e+00 0.000000e+00 0.000000e+00
 0.000000e+00 0.000000e+00 0.000000e+00
 0.000000e+00 0.000000e+00 0.000000e+00
 0.000000e+00 0.000000e+00 0.000000e+00
 0.000000e+00 0.000000e+00 0.000000e+00
 0.000000e+00 0.000000e+00 0.000000e+00
 0.000000e+00 0.000000e+00 0.000000e+00
 0.000000e+00 0.000000e+00 0.000000e+00
 0.000000e+00 0.000000e+00 0.000000e+00
 0.000000e+00 0.000000e+00 0.000000e+00
 0.000000e+00 0.000000e+00 0.000000e+00
 0.000000e+00 0.000000e+00 0.000000e+00
 0.000000e+00 0.000000e+00 0.000000e+00
 0.000000e+00 0.000000e+00 0.000000e+00
 0.000000e+00 0.000000e+00 0.000000e+00
 0.000000e+00 0.000000e+00 0.000000e+00
 0.000000e+00 0.000000e+00 0.000000e+00
 1.109617e-03 -3.529652e-01 0.000000e+00
 2.115147e-03 -4.398339e-01 0.000000e+00
 2.219481e-03 -4.481447e-01 0.000000e+00
 1.277890e-03 -3.706164e-01 0.000000e+00
 3.664787e-01 -2.221039e-06 0.000000e+00
 4.459512e-01 -2.024715e-04 0.000000e+00
 4.426131e-01 1.403955e-04 0.000000e+00
 3.565876e-01 4.597579e-04 0.000000e+00
 2.116179e-01 -2.302205e-01 0.000000e+00
 4.058265e-02 -4.411279e-01 0.000000e+00
 4.584890e-01 -3.726704e-02 0.000000e+00
 1.119198e-02 -1.152815e-02 0.000000e+00
 4.177041e-04 -2.078978e-01 0.000000e+00
 2.866683e-01 3.640584e-04 0.000000e+00
 2.065403e-01 3.835005e-04 0.000000e+00
 9.720333e-04 -2.834243e-01 0.000000e+00
 8.516852e-02 -3.441189e-01 0.000000e+00
 4.255309e-01 -2.016308e-01 0.000000e+00
 4.517478e-01 2.731067e-04 0.000000e+00
 1.259856e-02 -4.488059e-01 0.000000e+00
 9.628767e-02 -1.033603e-01 0.000000e+00
 2.476245e-01 -7.020100e-02 0.000000e+00
 3.719381e-01 -4.004522e-02 0.000000e+00
 1.117960e-02 -3.773151e-01 0.000000e+00
 3.990794e-03 -4.193297e-01 0.000000e+00
 1.217729e-01 -4.539225e-01 0.000000e+00
 6.961526e-02 -2.284337e-01 0.000000e+00
 4.007585e-01 -4.521573e-03 0.000000e+00
 4.174340e-01 1.608600e-03 0.000000e+00
 2.539176e-02 -3.428684e-01 0.000000e+00
 2.427092e-02 -4.264432e-01 0.000000e+00
 4.250882e-01 6.671516e-04 0.000000e+00
 4.290390e-01 2.308758e-03 0.000000e+00
 4.125540e-01 -9.514311e-02 0.000000e+00
 1.381665e-01 -4.250231e-02 0.000000e+00
 3.517930e-01 -9.816746e-02 0.000000e+00
 2.663550e-03 -3.239849e-01 0.000000e+00
 1.160142e-02 -4.450721e-01 0.000000e+00
 2.562566e-02 -5.287773e-02 0.000000e+00
 3.269254e-03 -3.147771e-01 0.000000e+00
 2.618507e-01 -1.022407e-02 0.000000e+00
 2.666796e-01 -3.675007e-01 0.000000e+00
 3.494947e-01 -9.379568e-03 0.000000e+00
 2.660737e-01 -2.710226e-02 0.000000e+00
 3.805449e-02 -2.444319e-01 0.000000e+00
 5.019709e-03 -4.506856e-01 0.000000e+00
 8.233037e-02 -4.222775e-01 0.000000e+00
 3.551853e-02 -3.057026e-01 0.000000e+00
 1.371169e-01 -2.899930e-01 0.000000e+00
 3.665998e-02 -1.290742e-01 0.000000e+00
 4.495337e-01 -2.899801e-02 0.000000e+00
 4.241669e-01 -7.528583e-02 0.000000e+00
 2.843317e-01 -1.629492e-01 0.000000e+00
 5.799939e-02 -4.550479e-01 0.000000e+00
 2.259739e-02 -4.503219e-01 0.000000e+00
 4.561168e-01 -7.288712e-03 0.000000e+00
 4.507431e-01 8.115582e-04 0.000000e+00
 3.057698e-01 6.441470e-04 0.000000e+00
 3.452135e-01 4.157477e-03 0.000000e+00
 1.886743e-01 -1.349082e-01 0.000000e+00
 7.479760e-02 -4.237762e-01 0.000000e+00
 5.434114e-02 -2.934195e-02 0.000000e+00
 9.772554e-03 -3.963895e-01 0.000000e+00
 2.161316e-02 -3.501738e-01 0.000000e+00
 1.571571e-01 -1.912261e-02 0.000000e+00
 9.990835e-03 -3.064352e-01 0.000000e+00
 2.508434e-02 -4.016827e-01 0.000000e+00
 4.172509e-01 -5.712182e-04 0.000000e+00
 2.785252e-03 -4.174736e-01 0.000000e+00
 1.325717e-03 -3.059022e-01 0.000000e+00
 9.458117e-03 -4.148978e-01 0.000000e+00
 1.642353e-01 -3.895702e-01 0.000000e+00
 1.216400e-01 -1.941408e-01 0.000000e+00
 3.747026e-01 -3.335154e-01 0.000000e+00
 3.029690e-01 2.588930e-03 0.000000e+00
 4.612390e-01 -9.840086e-02 0.000000e+00
 4.385970e-01 2.579871e-03 0.000000e+00
 4.234675e-01 -3.490662e-02 0.000000e+00
 3.159705e-01 -2.653520e-01 0.000000e+00
 4.385675e-01 -1.598153e-02 0.000000e+00
 2.002374e-02 -1.499907e-01 0.000000e+00
 2.609360e-01 4.770183e-03 0.000000e+00
 5.464082e-02 -3.756109e-01 0.000000e+00
 3.098802e-01 -1.901511e-03 0.000000e+00
 4.511889e-02 -4.065220e-01 0.000000e+00
 8.138607e-02 -2.846775e-01 0.000000e+00
 3.527537e-03 -2.466588e-01 0.000000e+00
 3.014464e-01 1.532476e-03 0.000000e+00
 7.947210e-03 -2.994877e-01 0.000000e+00
 1.141642e-02 -1.812264e-01 0.000000e+00
 9.558756e-03 -2.085879e-01 0.000000e+00
 2.045737e-02 -4.458929e-01 0.000000e+00
 3.314097e-02 -4.521094e-01 0.000000e+00
 4.560478e-01 -1.506781e-02 0.000000e+00
 6.029121e-03 -2.117462e-01 0.000000e+00
 1.957721e-02 -4.317787e-01 0.000000e+00
 2.027701e-01 -2.317486e-02 0.000000e+00
 6.524829e-03 -4.295305e-01 0.000000e+00
 2.152576e-01 -4.486369e-01 0.000000e+00
 2.209231e-01 -3.140041e-01 0.000000e+00
 3.000751e-01 -1.248166e-04 0.000000e+00
 3.636851e-01 -1.750746e-01 0.000000e+00
 4.439552e-01 -4.875533e-03 0.000000e+00
 1.993051e-01 1.224708e-03 0.000000e+00
 4.130419e-01 -1.325509e-01 0.000000e+00
 1.702679e-01 2.126778e-04 0.000000e+00
 1.700689e-01 8.302438e-05 0.000000e+00
 0.000000e+00 0.000000e+00 0.000000e+00
 2.386156e-01 -2.023314e-02 0.000000e+00
 3.093040e-01 -1.374672e-01 0.000000e+00
 0.000000e+00 0.000000e+00 0.000000e+00
 4.041862e-03 -8.684919e-03 0.000000e+00
 1.184347e-03 -1.169651e-03 0.000000e+00
 0.000000e+00 0.000000e+00 0.000000e+00
 4.242288e-01 -2.246301e-01 0.000000e+00
 3.238832e-01 -3.338309e-01 0.000000e+00
 4.134075e-04 -1.671985e-01 0.000000e+00
 3.470111e-04 -1.664575e-01 0.000000e+00
 0.000000e+00 0.000000e+00 0.000000e+00
 7.398347e-04 -2.936593e-01 0.000000e+00
 1.822758e-04 -1.164827e-01 0.000000e+00
 4.642518e-04 -2.281841e-01 0.000000e+00
 1.733766e-04 -1.158787e-01 0.000000e+00
 0.000000e+00 0.000000e+00 0.000000e+00
 7.587985e-04 -2.620989e-01 0.000000e+00
 4.922072e-04 -1.862888e-01 0.000000e+00
 2.924156e-02 -2.084893e-02 0.000000e+00
 2.427864e-02 -8.535226e-03 0.000000e+00
 9.114194e-03 -4.469318e-03 0.000000e+00
 1.263525e-03 -1.925755e-01 0.000000e+00
 8.237078e-04 -1.945746e-01 0.000000e+00
 0.000000e+00 0.000000e+00 0.000000e+00
 4.415435e-02 -1.004655e-02 0.000000e+00
 0.000000e+00 0.000000e+00 0.000000e+00
 0.000000e+00 0.000000e+00 0.000000e+00
 1.540193e-01 -3.020656e-02 0.000000e+00
 8.765292e-02 -6.295736e-03 0.000000e+00
 1.014160e-01 -1.353281e-02 0.000000e+00
 3.556839e-03 -2.833801e-01 0.000000e+00
 1.005620e-03 -1.436081e-01 0.000000e+00
 1.415017e-03 -1.404007e-01 0.000000e+00
 0.000000e+00 0.000000e+00 0.000000e+00
 4.228789e-02 -4.477173e-02 0.000000e+00
 1.907647e-02 -2.926546e-02 0.000000e+00
 7.669522e-02 -1.366644e-02 0.000000e+00
 0.000000e+00 0.000000e+00 0.000000e+00
 1.037487e-01 -5.730314e-03 0.000000e+00
 0.000000e+00 0.000000e+00 0.000000e+00
 1.793304e-01 -7.588981e-03 0.000000e+00
 1.623593e-01 -9.268764e-03 0.000000e+00
 0.000000e+00 0.000000e+00 0.000000e+00
 3.220463e-01 -5.970556e-02 0.000000e+00
 2.661110e-01 -4.699583e-02 0.000000e+00
 3.007050e-01 -8.714558e-02 0.000000e+00
 1.634156e-01 -2.293288e-03 0.000000e+00
 1.552463e-01 -3.551996e-03 0.000000e+00
 0.000000e+00 0.000000e+00 0.000000e+00
 3.101253e-01 -1.063968e-02 0.000000e+00
 2.279323e-01 -3.119393e-03 0.000000e+00
 2.586013e-01 8.306245e-04 0.000000e+00
 1.815022e-01 6.291897e-04 0.000000e+00
 1.146895e-01 2.259632e-04 0.000000e+00
 8.243726e-03 -2.630746e-01 0.000000e+00
 1.664296e-03 -1.234330e-01 0.000000e+00
 3.155271e-03 -1.899494e-01 0.000000e+00
 2.083735e-03 -1.179479e-01 0.000000e+00
 0.000000e+00 0.000000e+00 0.000000e+00
 1.769728e-01 -3.030594e-01 0.000000e+00
 2.187481e-01 -2.710543e-01 0.000000e+00
 1.741285e-01 -2.638946e-01 0.000000e+00
 2.742528e-02 -2.853050e-01 0.000000e+00
 8.465802e-02 -3.429196e-01 0.000000e+00
 0.000000e+00 0.000000e+00 0.000000e+00
 3.964234e-02 -3.848868e-01 0.000000e+00
 1.121126e-02 -2.293776e-01 0.000000e+00
 1.297398e-02 -3.233234e-01 0.000000e+00
 3.298935e-03 -1.803414e-01 0.000000e+00
 6.045169e-03 -2.117052e-01 0.000000e+00
 2.081657e-03 -1.743168e-01 0.000000e+00
 0.000000e+00 0.000000e+00 0.000000e+00
 2.535388e-03 -4.316237e-01 0.000000e+00
 1.883697e-03 -3.943833e-01 0.000000e+00
 1.692280e-03 -4.132271e-01 0.000000e+00
 2.553138e-01 1.469256e-03 0.000000e+00
 1.106677e-01 4.005858e-04 0.000000e+00
 2.953053e-01 4.554564e-04 0.000000e+00
 1.152080e-01 1.083812e-04 0.000000e+00
 2.299355e-01 2.105757e-04 0.000000e+00
 3.329519e-01 -4.817280e-03 0.000000e+00
 1.916812e-01 -2.327937e-04 0.000000e+00
 2.325961e-01 -1.552479e-03 0.000000e+00
 3.077889e-01 4.696803e-03 0.000000e+00
 1.504854e-01 1.867214e-03 0.000000e+00
 2.163313e-01 2.243801e-03 0.000000e+00
 3.053970e-01 -8.085282e-04 0.000000e+00
 1.812198e-01 -5.229557e-05 0.000000e+00
 0.000000e+00 0.000000e+00 0.000000e+00
 1.464084e-01 2.594806e-03 0.000000e+00
 0.000000e+00 0.000000e+00 0.000000e+00
 3.272144e-03 -1.139622e-01 0.000000e+00
 2.755491e-03 -1.222831e-01 0.000000e+00
 0.000000e+00 0.000000e+00 0.000000e+00
 2.072732e-02 -2.687849e-01 0.000000e+00
 1.780305e-02 -2.862497e-01 0.000000e+00
 3.049295e-02 -3.260146e-01 0.000000e+00
 7.924091e-04 -1.977250e-01 0.000000e+00
 1.411288e-03 -2.001154e-01 0.000000e+00
 0.000000e+00 0.000000e+00 0.000000e+00
 2.906577e-02 -1.979115e-01 0.000000e+00
 6.013476e-03 -9.422439e-02 0.000000e+00
 1.193761e-02 -1.499902e-01 0.000000e+00
 4.455636e-01 6.670619e-04 0.000000e+00
 4.495063e-01 1.960475e-04 0.000000e+00
 4.383222e-01 2.332280e-04 0.000000e+00
 1.698858e-01 3.651388e-03 0.000000e+00
 1.702971e-01 3.842026e-03 0.000000e+00
 0.000000e+00 0.000000e+00 0.000000e+00
 6.179134e-03 -7.958025e-02 0.000000e+00
 0.000000e+00 0.000000e+00 0.000000e+00
 1.104247e-02 -6.707766e-02 0.000000e+00
 1.090427e-02 -8.694991e-02 0.000000e+00
 0.000000e+00 0.000000e+00 0.000000e+00
 2.866224e-03 -4.499210e-01 0.000000e+00
 2.886775e-03 -4.481639e-01 0.000000e+00
 2.301522e-03 -4.499290e-01 0.000000e+00
 1.712499e-03 -3.974971e-01 0.000000e+00
 2.310059e-03 -4.383466e-01 0.000000e+00
 1.848080e-03 -4.281566e-01 0.000000e+00
 3.316473e-01 1.817370e-04 0.000000e+00
 2.397687e-01 3.165502e-05 0.000000e+00
 1.850014e-01 3.244382e-04 0.000000e+00
 1.855107e-01 3.430212e-04 0.000000e+00
 0.000000e+00 0.000000e+00 0.000000e+00
 4.526410e-01 -1.288068e-02 0.000000e+00
 4.497097e-01 -2.558859e-02 0.000000e+00
 4.587905e-01 -1.870837e-02 0.000000e+00
 4.485837e-01 4.570559e-04 0.000000e+00
 4.502803e-01 -1.207697e-04 0.000000e+00
 1.878110e-03 -3.697731e-01 0.000000e+00
 1.102730e-03 -3.328644e-01 0.000000e+00
 5.982794e-04 -2.420850e-01 0.000000e+00
 2.352919e-01 -1.505494e-01 0.000000e+00
 2.015040e-01 -1.809993e-01 0.000000e+00
 2.501441e-01 -1.985796e-01 0.000000e+00
 1.559039e-01 -1.670204e-01 0.000000e+00
 1.649334e-01 -2.135506e-01 0.000000e+00
 6.162101e-02 -4.156940e-01 0.000000e+00
 4.415803e-02 -4.265815e-01 0.000000e+00
 5.872816e-02 -4.348246e-01 0.000000e+00
 3.794072e-01 5.622636e-04 0.000000e+00
 4.023190e-01 2.935215e-04 0.000000e+00
 4.540461e-01 -2.125944e-02 0.000000e+00
 4.610972e-01 -2.647900e-02 0.000000e+00
 4.632911e-01 -3.621372e-02 0.000000e+00
 4.022975e-01 1.222882e-03 0.000000e+00
 4.369523e-01 1.022884e-03 0.000000e+00
 4.173271e-01 4.259765e-04 0.000000e+00
 2.771354e-02 -4.517172e-01 0.000000e+00
 3.804585e-02 -4.502784e-01 0.000000e+00
 3.074677e-02 -4.472952e-01 0.000000e+00
 2.988292e-03 -3.822240e-01 0.000000e+00
 1.584949e-03 -3.043939e-01 0.000000e+00
 4.420448e-01 -1.204936e-01 0.000000e+00
 4.213117e-01 -1.646592e-01 0.000000e+00
 4.503226e-01 -1.460391e-01 0.000000e+00
 7.310394e-03 -2.245972e-02 0.000000e+00
 7.989176e-03 -3.891797e-02 0.000000e+00
 0.000000e+00 0.000000e+00 0.000000e+00
 4.241185e-01 -1.057554e-04 0.000000e+00
 7.616103e-02 -1.687945e-01 0.000000e+00
 1.098847e-01 -1.477681e-01 0.000000e+00
 6.544932e-02 -1.243046e-01 0.000000e+00
 4.447069e-01 -8.936523e-02 0.000000e+00
 4.614895e-01 -6.177248e-02 0.000000e+00
 4.469105e-01 -5.742105e-02 0.000000e+00
 3.914893e-01 -9.027475e-02 0.000000e+00
 4.009385e-01 -5.796793e-02 0.000000e+00
 3.674539e-01 -6.599644e-02 0.000000e+00
 2.566264e-03 -3.798908e-01 0.000000e+00
 1.119499e-03 -3.315547e-01 0.000000e+00
 6.086423e-03 -4.463490e-01 0.000000e+00
 9.302447e-03 -4.420469e-01 0.000000e+00
 8.295640e-03 -4.502024e-01 0.000000e+00
 2.277099e-02 -4.190862e-01 0.000000e+00
 2.854368e-02 -4.372959e-01 0.000000e+00
 3.334247e-02 -4.257013e-01 0.000000e+00
 3.771962e-02 -2.763983e-01 0.000000e+00
 5.772767e-02 -3.319172e-01 0.000000e+00
 6.201647e-02 -3.010834e-01 0.000000e+00
 1.182147e-01 -4.114245e-01 0.000000e+00
 1.219962e-01 -3.677104e-01 0.000000e+00
 8.858514e-02 -3.871144e-01 0.000000e+00
 2.976794e-01 -4.088649e-01 0.000000e+00
 2.128914e-01 -4.181709e-01 0.000000e+00
 2.965082e-01 5.804106e-04 0.000000e+00
 0.000000e+00 0.000000e+00 0.000000e+00
 3.871767e-01 2.263689e-03 0.000000e+00
 3.317936e-01 9.563210e-04 0.000000e+00
 4.215518e-01 5.584983e-04 0.000000e+00
 4.432837e-01 -6.575736e-04 0.000000e+00
 4.446668e-01 5.984587e-04 0.000000e+00
 4.601317e-02 -3.449005e-01 0.000000e+00
 6.907527e-02 -3.625299e-01 0.000000e+00
 1.386308e-02 -4.249478e-01 0.000000e+00
 1.562534e-02 -4.116878e-01 0.000000e+00
 1.054581e-02 -3.986590e-01 0.000000e+00
 7.489203e-02 -4.478877e-01 0.000000e+00
 8.499462e-02 -4.575491e-01 0.000000e+00
 1.023190e-01 -4.388271e-01 0.000000e+00
 4.461621e-01 1.495200e-03 0.000000e+00
 4.511713e-01 9.899195e-04 0.000000e+00
 4.478056e-01 1.851244e-03 0.000000e+00
 4.076619e-01 -1.425086e-02 0.000000e+00
 4.243832e-01 -9.430670e-03 0.000000e+00
 3.786346e-01 -7.026473e-03 0.000000e+00
 4.502688e-01 -9.871005e-04 0.000000e+00
 4.503134e-01 1.041835e-03 0.000000e+00
 4.536148e-01 -1.855634e-03 0.000000e+00
 3.235444e-01 -1.714913e-01 0.000000e+00
 3.592573e-01 -1.337556e-01 0.000000e+00
 3.220497e-01 -1.311180e-01 0.000000e+00
 4.615334e-01 -1.084544e-01 0.000000e+00
 4.528006e-01 -1.739569e-01 0.000000e+00
 1.703233e-01 -8.628915e-02 0.000000e+00
 2.227397e-01 -1.025818e-01 0.000000e+00
 1.928503e-01 -5.741142e-02 0.000000e+00
 1.799791e-01 -2.133888e-02 0.000000e+00
 1.285682e-01 -6.977049e-03 0.000000e+00
 1.314491e-01 -2.416973e-01 0.000000e+00
 9.473790e-02 -2.155014e-01 0.000000e+00
 1.023280e-01 -2.618670e-01 0.000000e+00
 4.253695e-01 -5.248753e-02 0.000000e+00
 4.005702e-01 -3.907119e-02 0.000000e+00
 7.975944e-03 -4.494057e-01 0.000000e+00
 1.259326e-02 -4.506220e-01 0.000000e+00
 1.511185e-02 -4.291299e-01 0.000000e+00
 1.623744e-02 -4.475220e-01 0.000000e+00
 1.210905e-02 -4.345878e-01 0.000000e+00
 1.738217e-02 -3.661428e-01 0.000000e+00
 2.612739e-02 -3.761475e-01 0.000000e+00
 1.655401e-02 -3.293563e-01 0.000000e+00
 4.857763e-03 -4.438500e-01 0.000000e+00
 9.385444e-02 -3.699016e-02 0.000000e+00
 7.829524e-02 -6.355492e-02 0.000000e+00
 1.237631e-01 -7.385192e-02 0.000000e+00
 3.154822e-02 -8.901424e-02 0.000000e+00
 5.749787e-02 -8.093521e-02 0.000000e+00
 6.220643e-03 -3.790101e-01 0.000000e+00
 6.437244e-03 -3.518603e-01 0.000000e+00
 1.086454e-02 -4.340645e-01 0.000000e+00
 6.349440e-03 -4.174949e-01 0.000000e+00
 7.190443e-03 -4.360350e-01 0.000000e+00
 4.326102e-01 -2.456046e-02 0.000000e+00
 3.981458e-01 -2.037078e-02 0.000000e+00
 2.692406e-01 -1.767680e-02 0.000000e+00
 3.248134e-01 -3.577974e-02 0.000000e+00
 3.322782e-01 -2.354494e-02 0.000000e+00
 6.827226e-02 -4.496256e-01 0.000000e+00
 1.078025e-01 -4.597508e-01 0.000000e+00
 4.113763e-01 -2.635761e-01 0.000000e+00
 1.816915e-01 2.691994e-04 0.000000e+00
 0.000000e+00 0.000000e+00 0.000000e+00
 3.686895e-01 -2.138279e-02 0.000000e+00
 1.075405e-01 -2.900149e-01 0.000000e+00
 8.426935e-02 -3.151372e-01 0.000000e+00
 1.109482e-01 -3.213159e-01 0.000000e+00
 2.785704e-02 -1.436175e-01 0.000000e+00
 4.238748e-02 -1.977913e-01 0.000000e+00
 5.329656e-02 -1.787427e-01 0.000000e+00
 8.254943e-03 -4.157079e-01 0.000000e+00
 4.705027e-03 -3.930528e-01 0.000000e+00
 5.315150e-03 -3.643404e-01 0.000000e+00
 2.680193e-01 -2.948332e-01 0.000000e+00
 2.445120e-01 -3.405163e-01 0.000000e+00
 2.981711e-01 -3.173827e-01 0.000000e+00
 3.402743e-02 -4.054739e-01 0.000000e+00
 3.575182e-02 -3.809951e-01 0.000000e+00
 3.954059e-03 -9.397968e-02 0.000000e+00
 3.495516e-03 -1.043971e-01 0.000000e+00
 0.000000e+00 0.000000e+00 0.000000e+00
 5.028185e-02 -3.924019e-01 0.000000e+00
 6.928675e-02 -4.008596e-01 0.000000e+00
 1.949857e-01 -3.554364e-01 0.000000e+00
 1.554138e-01 -3.391281e-01 0.000000e+00
 5.868761e-02 -2.697765e-01 0.000000e+00
 7.629558e-02 -2.569260e-01 0.000000e+00
 5.288834e-02 -2.409069e-01 0.000000e+00
 4.336674e-01 -2.247154e-03 0.000000e+00
 4.498263e-01 -1.721390e-03 0.000000e+00
 3.992505e-01 -1.051125e-02 0.000000e+00
 3.754182e-01 2.350411e-03 0.000000e+00
 4.323280e-01 -7.780132e-03 0.000000e+00
 3.905506e-01 -1.550981e-01 0.000000e+00
 3.823023e-01 -1.169854e-01 0.000000e+00
 4.651394e-01 -6.232603e-02 0.000000e+00
 4.370454e-01 -5.380413e-02 0.000000e+00
 2.697169e-01 -1.139506e-01 0.000000e+00
 3.515074e-01 -3.057743e-01 0.000000e+00
 3.189253e-01 -3.652720e-01 0.000000e+00
 0.000000e+00 0.000000e+00 0.000000e+00
 5.070747e-02 -4.510618e-01 0.000000e+00
 4.355950e-02 -4.530562e-01 0.000000e+00
 2.969005e-02 -4.457458e-01 0.000000e+00
 3.845494e-02 -4.450530e-01 0.000000e+00
 1.654605e-02 -4.482305e-01 0.000000e+00
 1.723994e-02 -4.511012e-01 0.000000e+00
 4.071836e-01 4.380617e-03 0.000000e+00
 4.300689e-01 2.492338e-03 0.000000e+00
 3.848250e-01 5.232919e-03 0.000000e+00
 4.567696e-01 -1.043225e-02 0.000000e+00
 4.419222e-01 -5.236999e-03 0.000000e+00
 4.481992e-01 -3.883216e-03 0.000000e+00
 3.772593e-01 4.379954e-04 0.000000e+00
 3.844289e-01 7.339242e-04 0.000000e+00
 2.803327e-01 5.454329e-03 0.000000e+00
 3.586110e-01 5.421943e-03 0.000000e+00
 4.334831e-01 3.087435e-03 0.000000e+00
 1.410926e-01 -1.209565e-01 0.000000e+00
 1.426254e-01 -4.573179e-01 0.000000e+00
 1.602282e-01 -4.556989e-01 0.000000e+00
 9.463022e-03 -3.576559e-01 0.000000e+00
 1.586479e-02 -3.809569e-01 0.000000e+00
 1.565387e-02 -4.117162e-01 0.000000e+00
 3.671691e-03 -2.691487e-01 0.000000e+00
 4.243042e-02 -4.319898e-01 0.000000e+00
 2.454078e-02 -3.986250e-01 0.000000e+00
 2.118762e-01 -4.262454e-02 0.000000e+00
 2.346934e-01 -2.562626e-02 0.000000e+00
 2.347866e-01 -4.457718e-02 0.000000e+00
 7.718390e-03 -2.112707e-01 0.000000e+00
 1.438836e-02 -2.921743e-01 0.000000e+00
 6.161511e-03 -2.804054e-01 0.000000e+00
 7.151819e-03 -3.264168e-01 0.000000e+00
 1.108534e-02 -3.463489e-01 0.000000e+00
 2.177739e-02 -4.438251e-01 0.000000e+00
 1.547093e-02 -4.396939e-01 0.000000e+00
 1.713198e-02 -3.922923e-01 0.000000e+00
 4.419790e-01 -9.454620e-03 0.000000e+00
 4.282401e-01 -5.240626e-03 0.000000e+00
 3.750580e-01 -4.592697e-04 0.000000e+00
 3.623026e-01 -1.603519e-03 0.000000e+00
 4.099505e-01 -2.170557e-03 0.000000e+00
 4.315714e-03 -4.237153e-01 0.000000e+00
 3.991315e-03 -4.440724e-01 0.000000e+00
 2.095207e-03 -3.108339e-01 0.000000e+00
 4.105034e-03 -3.819783e-01 0.000000e+00
 1.493157e-01 -4.285600e-01 0.000000e+00
 1.940797e-01 -4.226337e-01 0.000000e+00
 2.505969e-01 -4.124898e-01 0.000000e+00
 2.116572e-01 -3.839919e-01 0.000000e+00
 3.532651e-01 -2.252696e-02 0.000000e+00
 4.206109e-01 -1.013858e-01 0.000000e+00
 3.994891e-01 3.405989e-03 0.000000e+00
 4.443339e-01 -3.878644e-02 0.000000e+00
 3.015915e-01 -2.112851e-01 0.000000e+00
 2.608559e-01 -2.498780e-01 0.000000e+00