<?xml version="1.0"?>
<VTKFile type="UnstructuredGrid"  version="0.1"  >
<UnstructuredGrid>
<Piece  NumberOfPoints="505" NumberOfCells="928">
<Points>
<DataArray  type="Float32"  NumberOfComponents="3"  format="ascii">
0 0 0
1 0 0
0 1 0
1 0.5 0
0.5 0.5 0
0.5 1 0
0.1 0 0
0.2 0 0
0.3 0 0
0.4 0 0
0.5 0 0
0.6 0 0
0.7 0 0
0.8 0 0
0.9 0 0
0 0.9 0
0 0.8 0
0 0.7 0
0 0.6 0
0 0.5 0
0 0.4 0
0 0.3 0
0 0.2 0
0 0.1 0
0.9 0.5 0
0.8 0.5 0
0.7 0.5 0
0.6 0.5 0
0.5 0.6 0
0.5 0.7 0
0.5 0.8 0
0.5 0.9 0
0.1 1 0
0.2 1 0
0.3 1 0
0.4 1 0
1 0.1 0
1 0.2 0
1 0.3 0
1 0.4 0
0.300178 0.296564 0
0.247566 0.664879 0
0.639694 0.259804 0
0.06564 0.06472 0
0.04439 0.954144 0
0.932418 0.064715 0
0.951013 0.456419 0
0.437622 0.939659 0
0.195334 0.464441 0
0.483382 0.329596 0
0.834786 0.236295 0
0.307228 0.81139 0
0.178229 0.173372 0
0.366998 0.134199 0
0.547485 0.14214 0
0.124832 0.74927 0
0.160163 0.896658 0
0.342556 0.535243 0
0.147651 0.342018 0
0.729803 0.127878 0
0.725981 0.357775 0
0.121369 0.600441 0
0.372954 0.70814 0
0.908503 0.151525 0
0.89851 0.333305 0
0.556275 0.400898 0
0.259184 0.092178 0
0.46329 0.194362 0
0.423773 0.869712 0
0.22823 0.818162 0
0.081292 0.144905 0
0.082979 0.831935 0
0.549999 0.065419 0
0.371537 0.407588 0
0.642628 0.097865 0
0.459835 0.086595 0
0.108565 0.418567 0
0.273082 0.902112 0
0.256598 0.556659 0
0.11951 0.509541 0
0.234147 0.370527 0
0.097453 0.253261 0
0.638438 0.342389 0
0.554656 0.224779 0
0.373432 0.237603 0
0.339663 0.62579 0
0.27079 0.747786 0
0.733958 0.266592 0
0.928527 0.244458 0
0.853116 0.071497 0
0.818426 0.404817 0
0.280194 0.200604 0
0.417859 0.565185 0
0.147241 0.079056 0
0.389149 0.789957 0
0.42808 0.654642 0
0.343469 0.059202 0
0.086765 0.684153 0
0.162043 0.675011 0
0.809252 0.14201 0
0.364337 0.928607 0
0.077532 0.916553 0
0.159064 0.807906 0
0.302124 0.454032 0
0.205909 0.272176 0
0.449664 0.407415 0
0.66041 0.423241 0
0.562201 0.303789 0
0.802658 0.320211 0
0.614551 0.182931 0
0.390944 0.331035 0
0.687136 0.18846 0
0.070577 0.342498 0
0.741087 0.437361 0
0.176989 0.547528 0
0.710251 0.07409 0
0.192845 0.608574 0
0.171114 0.398277 0
0.058959 0.753084 0
0.904 0.425508 0
0.438039 0.730373 0
0.057223 0.475897 0
0.058502 0.552106 0
0.330493 0.750997 0
0.312295 0.699131 0
0.684882 0.307111 0
0.053312 0.627311 0
0.198798 0.743695 0
0.392326 0.069953 0
0.351519 0.860283 0
0.397134 0.477694 0
0.319385 0.371198 0
0.767351 0.069505 0
0.441954 0.271171 0
0.759504 0.192785 0
0.855661 0.457701 0
0.500847 0.264652 0
0.916209 0.0323575 0
0.966209 0.0323575 0
0.95 0 0
0.578137 0.450449 0
0.528137 0.450449 0
0.55 0.5 0
0.03282 0.08236 0
0.03282 0.03236 0
0 0.05 0
0.502969 0.404157 0
0.474832 0.453708 0
0.468811 0.91983 0
0.468811 0.96983 0
0.5 0.95 0
0.072195 0.977072 0
0.022195 0.977072 0
0.05 1 0
0.022195 0.927072 0
0 0.95 0
0.060961 0.935348 0
0.038766 0.908276 0
0.106441 0.071888 0
0.123621 0.039528 0
0.08282 0.03236 0
0.0414895 0.815967 0
0.0414895 0.865968 0
0 0.85 0
0.173621 0.039528 0
0.15 0 0
0.05 0 0
0.301327 0.07569 0
0.321735 0.029601 0
0.279592 0.046089 0
0.070969 0.792509 0
0.0294795 0.776542 0
0.0294795 0.726542 0
0 0.75 0
0.114267 0.111981 0
0.073466 0.104813 0
0.229592 0.046089 0
0.25 0 0
0.371735 0.029601 0
0.35 0 0
0.479917 0.0432975 0
0.429918 0.0432975 0
0.45 0 0
0.461562 0.140479 0
0.413416 0.110397 0
0.415144 0.16428 0
0.574999 0.0327095 0
0.525 0.0327095 0
0.55 0 0
0.596313 0.081642 0
0.621314 0.0489325 0
0.927507 0.440964 0
0.902 0.462754 0
0.925507 0.47821 0
0.0700385 0.655732 0
0.026656 0.663655 0
0.0433825 0.692076 0
0.026656 0.613655 0
0 0.65 0
0.276766 0.370862 0
0.309781 0.333881 0
0.267162 0.333545 0
0.458929 0.582593 0
0.458929 0.532593 0
0.5 0.55 0
0.422969 0.609913 0
0.46404 0.627321 0
0.43306 0.692508 0
0.46902 0.715186 0
0.46404 0.677321 0
0.46902 0.765186 0
0.5 0.75 0
0.180082 0.948329 0
0.130082 0.948329 0
0.15 1 0
0.87983 0.441605 0
0.87783 0.478851 0
0.975507 0.42821 0
0.975507 0.47821 0
1 0.45 0
0.676439 0.0859775 0
0.705125 0.037045 0
0.671314 0.0489325 0
0.779756 0.421089 0
0.770544 0.46868 0
0.809213 0.452408 0
0.738801 0.0717975 0
0.733675 0.0347525 0
0.95 0.5 0
0.720544 0.46868 0
0.75 0.5 0
0.029251 0.526053 0
0.029251 0.576053 0
0 0.55 0
0.089006 0.530824 0
0.0899355 0.576273 0
0.12044 0.554991 0
0.461886 0.884856 0
0.461886 0.834856 0
0.5 0.85 0
0.089571 0.380533 0
0.0352885 0.371249 0
0.0542825 0.409284 0
0.918515 0.197991 0
0.964263 0.222229 0
0.954252 0.175762 0
0.630205 0.46162 0
0.680205 0.46162 0
0.65 0.5 0
0.0352885 0.321249 0
0 0.35 0
0.0487265 0.226631 0
0.0487265 0.276631 0
0 0.25 0
0.286541 0.951056 0
0.236541 0.951056 0
0.25 1 0
0.382169 0.964303 0
0.332168 0.964303 0
0.35 1 0
0.966209 0.0823575 0
1 0.05 0
0.876558 0.0357485 0
0.826558 0.0357485 0
0.85 0 0
0.710547 0.227526 0
0.663415 0.224132 0
0.686826 0.263198 0
0.964263 0.272229 0
1 0.25 0
0.40098 0.934133 0
0.418811 0.96983 0
0.45 1 0
0.326813 0.219104 0
0.290186 0.248584 0
0.336805 0.267084 0
0.243052 0.23639 0
0.253043 0.28437 0
0.224721 0.582616 0
0.220205 0.636726 0
0.252082 0.610769 0
0.92046 0.10812 0
0.954252 0.125762 0
0.66166 0.32475 0
0.662288 0.283458 0
0.639066 0.301096 0
0.949255 0.366653 0
0.949255 0.316653 0
1 0.35 0
0.291542 0.723459 0
0.27993 0.682005 0
0.259178 0.706333 0
0.394055 0.89916 0
0.430698 0.904686 0
0.531524 0.28422 0
0.492115 0.297124 0
0.522791 0.316692 0
0.040646 0.122453 0
0.040646 0.172453 0
0 0.15 0
1 0.15 0
0.151681 0.262718 0
0.192069 0.222774 0
0.137841 0.213317 0
0.558428 0.264284 0
0.600947 0.281797 0
0.597175 0.242291 0
0.508973 0.20957 0
0.551071 0.183459 0
0.505387 0.168251 0
0.118847 0.906605 0
0.088766 0.958276 0
0.3123 0.881198 0
0.329373 0.835836 0
0.290155 0.856751 0
0.18042 0.709353 0
0.223182 0.704287 0
0.204805 0.669945 0
0.114037 0.464054 0
0.157422 0.486991 0
0.15195 0.441504 0
0.279361 0.505346 0
0.248729 0.459236 0
0.225966 0.51055 0
0.423399 0.442555 0
0.448567 0.488847 0
0.892767 0.068106 0
0.65 0 0
0.901255 0.379406 0
0.952 0.412754 0
0.858877 0.146767 0
0.822019 0.189153 0
0.871644 0.19391 0
0.14825 0.528535 0
0.186162 0.505985 0
0.178931 0.775801 0
0.161815 0.746482 0
0.141948 0.778588 0
0.29813 0.591225 0
0.34111 0.580516 0
0.299577 0.545951 0
0.913519 0.288882 0
0.881657 0.240376 0
0.866648 0.2848 0
0.664882 0.143162 0
0.708469 0.158169 0
0.686215 0.112871 0
0.768308 0.293401 0
0.818722 0.278253 0
0.784372 0.251443 0
0.407693 0.254387 0
0.452622 0.232766 0
0.418361 0.215983 0
0.559238 0.352343 0
0.519829 0.365247 0
0.269689 0.146391 0
0.323596 0.167402 0
0.313091 0.113188 0
0.367897 0.0645775 0
0.396163 0.0349765 0
0.220028 0.321352 0
0.17678 0.307097 0
0.190899 0.356272 0
0.584604 0.203855 0
0.581018 0.162535 0
0.250656 0.860137 0
0.267729 0.814776 0
0.359821 0.770477 0
0.31886 0.781193 0
0.348189 0.800674 0
0.124404 0.679582 0
0.141706 0.637726 0
0.104067 0.642297 0
0.216622 0.899385 0
0.203213 0.085617 0
0.162735 0.126214 0
0.218707 0.132775 0
0.0893725 0.199083 0
0.129761 0.159139 0
0.121022 0.819921 0
0.103905 0.790602 0
0.193647 0.813034 0
0.159614 0.852282 0
0.194196 0.85741 0
0.650843 0.185696 0
0.628589 0.140398 0
0.504917 0.076007 0
0.50366 0.114367 0
0.548742 0.103779 0
0.378761 0.595487 0
0.380208 0.550214 0
0.466523 0.368506 0
0.783675 0.0347525 0
0.75 0 0
0.595056 0.120002 0
0.20263 0.384402 0
0.183224 0.431359 0
0.214741 0.417484 0
0.084015 0.29788 0
0.109114 0.342258 0
0.122552 0.29764 0
0.370334 0.82512 0
0.387646 0.864998 0
0.406461 0.829835 0
0.355164 0.351116 0
0.345461 0.389393 0
0.38124 0.369312 0
0.177444 0.641792 0
0.157107 0.604507 0
0.0286115 0.437949 0
0.0286115 0.487949 0
0 0.45 0
0.184917 0.578051 0
0.216794 0.552094 0
0.310754 0.412615 0
0.268135 0.41228 0
0.13984 0.408422 0
0.159382 0.370147 0
0.128108 0.380293 0
0.784378 0.167398 0
0.797145 0.21454 0
0.649424 0.382815 0
0.693196 0.390508 0
0.682209 0.350082 0
0.471401 0.267911 0
0.482069 0.229507 0
0.600319 0.323089 0
0.597356 0.371644 0
0.370215 0.185901 0
0.420304 0.369225 0
0.410601 0.407502 0
0.5 0.65 0
0.293615 0.645334 0
0.325979 0.66246 0
0.342624 0.703635 0
0.356309 0.666965 0
0.24951 0.782974 0
0.289009 0.779588 0
0.810542 0.362514 0
0.76432 0.338993 0
0.772204 0.381296 0
0.70942 0.286852 0
0.705431 0.332443 0
0.729969 0.312184 0
0.831184 0.106754 0
0.88081 0.111511 0
0.700748 0.430301 0
0.733534 0.397568 0
0.850584 0.326758 0
0.229212 0.186988 0
0.407496 0.52144 0
0.369845 0.506468 0
0.413594 0.760165 0
0.405497 0.719256 0
0.381051 0.749049 0
0.444574 0.794979 0
0.383872 0.640216 0
0.400517 0.681391 0
0.355233 0.0967005 0
0.42608 0.078274 0
0.379662 0.102076 0
0.055907 0.589708 0
0.0873405 0.613876 0
0.072862 0.718619 0
0.0918955 0.751177 0
0.105798 0.716711 0
0.234794 0.74574 0
0.213514 0.780928 0
0.143437 0.712141 0
0.72332 0.190623 0
0.744653 0.160332 0
0.788301 0.105758 0
0.748577 0.0986915 0
0.769527 0.134944 0
0.357928 0.894445 0
0.318709 0.915359 0
0.0802555 0.874244 0
0.121571 0.864297 0
0.32234 0.494638 0
0.349629 0.465863 0
0.384335 0.442641 0
0.336831 0.43081 0
0.608343 0.412069 0
0.527752 0.244716 0
0.858468 0.369061 0
0.627123 0.221367 0
0.382188 0.284319 0
0.345561 0.3138 0
0.437163 0.330315 0
0.746731 0.229689 0
0.149179 0.573985 0
0.720027 0.100984 0
0.810234 0.070501 0
0.861213 0.415162 0
0.827831 0.478851 0
0.85 0.5 0
0.082894 0.447232 0
0.0883665 0.492719 0
0.0578625 0.514002 0
0.300642 0.749391 0
0.351723 0.729569 0
0.321394 0.725064 0
0.416449 0.301103 0
0.462668 0.300384 0
0.837044 0.431259 0
</DataArray>
</Points>
<Cells>
<DataArray  type="UInt32"  Name="connectivity"  format="ascii">
1 138 139 
14 137 139 
45 137 138 
137 138 139 
4 141 142 
27 140 142 
65 140 141 
140 141 142 
0 144 145 
23 143 145 
43 143 144 
143 144 145 
4 141 147 
65 141 146 
105 146 147 
141 146 147 
5 149 150 
31 148 150 
47 148 149 
148 149 150 
2 152 153 
32 151 153 
44 151 152 
151 152 153 
2 152 155 
15 154 155 
44 152 154 
152 154 155 
15 154 157 
44 154 156 
101 156 157 
154 156 157 
6 159 160 
43 158 160 
93 158 159 
158 159 160 
15 162 163 
16 161 163 
71 161 162 
161 162 163 
6 159 165 
7 164 165 
93 159 164 
159 164 165 
[...]
<PointData  Vectors="u"> 
<DataArray  type="Float32"  Name="u"  NumberOfComponents="3" format="ascii">
 0.000000e+00 0.000000e+00 0.000000e+00
 0.000000e+00 0.000000e+00 0.000000e+00
 0.000000e+00 0.000000e+00 0.000000e+00
 0.000000e+00 0.000000e+00 0.000000e+00
 0.000000e+00 0.000000e+00 0.000000e+00
 0.000000e+00 0.000000e+00 0.000000e+00
 0.000000e+00 0.000000e+00 0.000000e+00
 0.000000e+00 0.000000e+00 0.000000e+00
 0.000000e+00 0.000000e+00 0.000000e+00
 0.000000e+00 0.000000e+00 0.000000e+00
 0.000000e+00 0.000000e+00 0.000000e+00
 0.000000e+00 0.000000e+00 0.000000e+00
 0.000000e+00 0.000000e+00 0.000000e+00
 0.000000e+00 0.000000e+00 0.000000e+00
 0.000000e+00 0.000000e+00 0.000000e+00
 0.000000e+00 0.000000e+00 0.000000e+00
 0.000000e+00 0.000000e+00 0.000000e+00
 0.000000e+00 0.000000e+00 0.000000e+00
 0.000000e+00 0.000000e+00 0.000000e+00
 0.000000e+00 0.000000e+00 0.000000e+00
 0.000000e+00 0.000000e+00 0.000000e+00
 0.000000e+00 0.000000e+00 0.000000e+00
 0.000000e+00 0.000000e+00 0.000000e+00
 0.000000e+00 0.000000e+00 0.000000e+00
 0.000000e+00 0.000000e+00 0.000000e+00
 0.000000e+00 0.000000e+00 0.000000e+00
 0.000000e+00 0.000000e+00 0.000000e+00
 0.000000e+00 0.000000e+00 0.000000e+00
 0.000000e+00 0.000000e+00 0.000000e+00
 0.000000e+00 0.000000e+00 0.000000e+00
 0.000000e+00 0.000000e+00 0.000000e+00
 0.000000e+00 0.000000e+00 0.000000e+00
 1.065776e-04 9.356275e-02 0.000000e+00
 1.146493e-04 1.179744e-01 0.000000e+00
 2.076901e-04 1.148138e-01 0.000000e+00
 2.346957e-04 8.649785e-02 0.000000e+00
 -9.492288e-02 6.222069e-03 0.000000e+00
 -1.181722e-01 1.251782e-02 0.000000e+00
 -1.146677e-01 1.315805e-02 0.000000e+00
 -8.543471e-02 6.897234e-03 0.000000e+00
 -5.932525e-02 3.702697e-02 0.000000e+00
 -3.951713e-03 1.193490e-01 0.000000e+00
 -1.145707e-01 1.919544e-02 0.000000e+00
 -9.762816e-04 8.923186e-04 0.000000e+00
 8.995694e-05 3.936476e-02 0.000000e+00
 -6.045300e-02 2.868445e-03 0.000000e+00
 -3.290110e-02 1.999913e-03 0.000000e+00
 3.181926e-04 5.294755e-02 0.000000e+00
 -2.502470e-02 9.286302e-02 0.000000e+00
 -1.303909e-01 3.879633e-02 0.000000e+00
 -1.138689e-01 1.344017e-02 0.000000e+00
 2.089780e-03 1.153740e-01 0.000000e+00
 -3.013135e-02 2.358668e-02 0.000000e+00
 -5.339374e-02 5.205665e-03 0.000000e+00
 -7.395348e-02 8.764929e-03 0.000000e+00
 4.408303e-04 1.075665e-01 0.000000e+00
 6.327716e-04 1.166669e-01 0.000000e+00
 -3.791771e-02 1.237886e-01 0.000000e+00
 -1.955932e-02 6.417393e-02 0.000000e+00
 -8.850918e-02 7.854372e-03 0.000000e+00
 -1.274813e-01 1.145515e-02 0.000000e+00
 -3.542615e-03 1.015164e-01 0.000000e+00
 3.917494e-03 1.014973e-01 0.000000e+00
 -1.108202e-01 8.925404e-03 0.000000e+00
 -1.167554e-01 1.065563e-02 0.000000e+00
 -1.345089e-01 2.076126e-02 0.000000e+00
 -3.119701e-02 4.397793e-03 0.000000e+00
 -7.686086e-02 1.335685e-02 0.000000e+00
 9.593582e-04 6.606659e-02 0.000000e+00
 1.069731e-03 1.174972e-01 0.000000e+00
 -7.697099e-03 1.287050e-02 0.000000e+00
 5.805239e-04 8.078771e-02 0.000000e+00
 -3.530764e-02 1.785076e-03 0.000000e+00
 -9.987179e-02 8.616257e-02 0.000000e+00
 -6.473048e-02 5.097767e-03 0.000000e+00
 -4.274687e-02 2.123355e-03 0.000000e+00
 -9.429295e-03 7.320901e-02 0.000000e+00
 9.265858e-04 1.156457e-01 0.000000e+00
 -2.225672e-02 1.159290e-01 0.000000e+00
 -7.710722e-03 9.147897e-02 0.000000e+00
 -4.154200e-02 6.460502e-02 0.000000e+00
 -1.095687e-02 3.843786e-02 0.000000e+00
 -1.370972e-01 1.688272e-02 0.000000e+00
 -9.712773e-02 1.832075e-02 0.000000e+00
 -6.997972e-02 1.988643e-02 0.000000e+00
 -5.568616e-03 1.196042e-01 0.000000e+00
 1.136150e-03 1.177327e-01 0.000000e+00
 -1.172131e-01 1.640202e-02 0.000000e+00
 -1.155794e-01 1.294812e-02 0.000000e+00
 -6.184570e-02 2.556628e-03 0.000000e+00
 -9.574958e-02 5.091815e-03 0.000000e+00
 -5.010931e-02 1.795852e-02 0.000000e+00
 -1.227362e-02 7.676211e-02 0.000000e+00
 -1.219953e-02 5.630715e-03 0.000000e+00
 2.797119e-03 9.207406e-02 0.000000e+00
 3.661854e-03 5.535051e-02 0.000000e+00
 -2.275483e-02 4.769416e-04 0.000000e+00
 4.746189e-05 8.378345e-02 0.000000e+00
 -2.021160e-03 1.158685e-01 0.000000e+00
 -1.008519e-01 8.324833e-03 0.000000e+00
 7.743390e-04 1.049907e-01 0.000000e+00
 3.240293e-04 7.510186e-02 0.000000e+00
 7.573674e-04 1.166691e-01 0.000000e+00
 -5.987903e-02 9.922411e-02 0.000000e+00
 -3.517562e-02 4.229581e-02 0.000000e+00
 -1.329537e-01 6.915064e-02 0.000000e+00
 -9.531393e-02 5.212020e-03 0.000000e+00
 -1.288721e-01 2.475594e-02 0.000000e+00
 -1.227566e-01 1.246903e-02 0.000000e+00
 -9.223699e-02 1.406326e-02 0.000000e+00
 -9.914906e-02 4.888981e-02 0.000000e+00
 -1.001882e-01 1.413992e-02 0.000000e+00
 -4.753039e-03 4.346246e-02 0.000000e+00
 -6.992812e-02 2.709306e-03 0.000000e+00
 -1.303645e-02 1.079019e-01 0.000000e+00
 -5.364961e-02 2.960071e-03 0.000000e+00
 -8.238978e-03 1.153458e-01 0.000000e+00
 -2.326900e-02 7.707024e-02 0.000000e+00
 4.749923e-04 5.729836e-02 0.000000e+00
 -6.995322e-02 3.649799e-03 0.000000e+00
 2.661727e-03 4.737769e-02 0.000000e+00
 -1.815743e-03 4.827630e-02 0.000000e+00
 -9.627942e-04 5.411416e-02 0.000000e+00
 2.903948e-03 1.141865e-01 0.000000e+00
 1.034566e-03 1.183808e-01 0.000000e+00
 -1.279116e-01 1.701110e-02 0.000000e+00
 -5.456056e-05 5.091274e-02 0.000000e+00
 3.497421e-05 1.187157e-01 0.000000e+00
 -3.011597e-02 7.964666e-04 0.000000e+00
 1.705241e-03 1.087650e-01 0.000000e+00
 -7.903236e-02 1.078172e-01 0.000000e+00
 -7.387563e-02 6.494749e-02 0.000000e+00
 -5.421803e-02 2.476706e-03 0.000000e+00
 -9.507067e-02 2.756726e-02 0.000000e+00
 -1.063919e-01 1.314419e-02 0.000000e+00
 -3.722082e-02 1.153171e-03 0.000000e+00
 -1.047012e-01 2.453670e-02 0.000000e+00
 -2.466174e-02 8.281598e-04 0.000000e+00
 -2.713564e-02 1.410355e-03 0.000000e+00
 0.000000e+00 0.000000e+00 0.000000e+00
 -7.200159e-02 5.176677e-03 0.000000e+00
 -8.796745e-02 1.912453e-02 0.000000e+00
 0.000000e+00 0.000000e+00 0.000000e+00
 -2.604310e-04 -3.493544e-04 0.000000e+00
 8.137047e-04 -8.022281e-04 0.000000e+00
 0.000000e+00 0.000000e+00 0.000000e+00
 -1.401892e-01 4.116895e-02 0.000000e+00
 -1.004774e-01 5.573136e-02 0.000000e+00
 1.540434e-04 2.008515e-02 0.000000e+00
 9.196045e-05 2.024610e-02 0.000000e+00
 0.000000e+00 0.000000e+00 0.000000e+00
 9.919832e-05 6.998247e-02 0.000000e+00
 2.418408e-05 1.494931e-02 0.000000e+00
 4.259440e-05 4.576221e-02 0.000000e+00
 8.063554e-05 1.518373e-02 0.000000e+00
 0.000000e+00 0.000000e+00 0.000000e+00
 1.944167e-04 5.817056e-02 0.000000e+00
 1.901857e-04 3.279188e-02 0.000000e+00
 -5.466690e-03 3.720604e-03 0.000000e+00
 -2.156599e-03 1.188700e-03 0.000000e+00
 4.660348e-04 1.589152e-04 0.000000e+00
 2.698848e-04 3.769691e-02 0.000000e+00
 2.408776e-04 3.726807e-02 0.000000e+00
 0.000000e+00 0.000000e+00 0.000000e+00
 -5.658856e-03 1.219735e-03 0.000000e+00
 0.000000e+00 0.000000e+00 0.000000e+00
 0.000000e+00 0.000000e+00 0.000000e+00
 -2.842191e-02 1.832850e-03 0.000000e+00
 -7.515809e-03 -1.291626e-04 0.000000e+00
 -1.440752e-02 6.205754e-04 0.000000e+00
 5.562259e-04 6.969309e-02 0.000000e+00
 2.248817e-04 2.397358e-02 0.000000e+00
 2.480165e-04 2.444514e-02 0.000000e+00
 0.000000e+00 0.000000e+00 0.000000e+00
 -1.166908e-02 1.032145e-02 0.000000e+00
 -4.494376e-03 5.470876e-03 0.000000e+00
 -1.169040e-02 1.166595e-03 0.000000e+00
 0.000000e+00 0.000000e+00 0.000000e+00
 -8.217208e-03 -1.100154e-04 0.000000e+00
 0.000000e+00 0.000000e+00 0.000000e+00
 -1.757861e-02 3.714770e-04 0.000000e+00
 -1.639134e-02 1.985154e-04 0.000000e+00
 0.000000e+00 0.000000e+00 0.000000e+00
 -6.418235e-02 6.725328e-03 0.000000e+00
 -5.004008e-02 3.180355e-03 0.000000e+00
 -6.456842e-02 8.527033e-03 0.000000e+00
 -1.285878e-02 4.194659e-04 0.000000e+00
 -1.155716e-02 2.380119e-04 0.000000e+00
 0.000000e+00 0.000000e+00 0.000000e+00
 -5.009078e-02 3.360084e-03 0.000000e+00
 -2.764147e-02 1.287978e-03 0.000000e+00
 -5.186313e-02 2.761775e-03 0.000000e+00
 -2.880600e-02 1.075675e-03 0.000000e+00
 -1.203509e-02 5.325397e-04 0.000000e+00
 -5.315788e-05 6.856405e-02 0.000000e+00
 1.997197e-04 2.176326e-02 0.000000e+00
 3.108343e-04 3.999417e-02 0.000000e+00
 8.582130e-05 2.184850e-02 0.000000e+00
 0.000000e+00 0.000000e+00 0.000000e+00
 -5.604781e-02 6.308190e-02 0.000000e+00
 -6.636578e-02 4.912303e-02 0.000000e+00
 -5.166161e-02 5.050440e-02 0.000000e+00
 4.004646e-04 2.028512e-02 0.000000e+00
 -1.609913e-02 3.536765e-02 0.000000e+00
 0.000000e+00 0.000000e+00 0.000000e+00
 2.767642e-04 6.305705e-02 0.000000e+00
 2.177038e-03 1.407237e-02 0.000000e+00
 3.471341e-03 5.098862e-02 0.000000e+00
 1.279942e-03 1.464122e-02 0.000000e+00
 1.947485e-03 1.711367e-02 0.000000e+00
 9.025720e-04 1.661341e-02 0.000000e+00
 0.000000e+00 0.000000e+00 0.000000e+00
 3.463756e-04 1.180516e-01 0.000000e+00
 3.002081e-04 1.094348e-01 0.000000e+00
 1.131432e-04 1.149589e-01 0.000000e+00
 -5.463755e-02 2.208695e-03 0.000000e+00
 -1.306969e-02 3.445202e-04 0.000000e+00
 -6.151669e-02 4.450346e-03 0.000000e+00
 -9.593079e-03 1.070083e-03 0.000000e+00
 -3.727119e-02 3.045267e-03 0.000000e+00
 -6.003379e-02 4.052046e-03 0.000000e+00
 -2.029800e-02 6.424760e-04 0.000000e+00
 -3.061591e-02 1.330751e-03 0.000000e+00
 -8.472995e-02 3.874383e-03 0.000000e+00
 -2.820618e-02 6.307115e-04 0.000000e+00
 -4.623472e-02 1.408100e-03 0.000000e+00
 -5.407345e-02 2.704834e-03 0.000000e+00
 -2.056397e-02 6.330778e-04 0.000000e+00
 0.000000e+00 0.000000e+00 0.000000e+00
 -3.051027e-02 7.111491e-04 0.000000e+00
 0.000000e+00 0.000000e+00 0.000000e+00
 -2.142018e-04 2.363135e-02 0.000000e+00
 -3.007438e-05 2.453771e-02 0.000000e+00
 0.000000e+00 0.000000e+00 0.000000e+00
 -3.472630e-03 7.809506e-02 0.000000e+00
 -2.255824e-03 8.233105e-02 0.000000e+00
 -5.630753e-03 9.726293e-02 0.000000e+00
 2.992893e-04 2.715730e-02 0.000000e+00
 5.589982e-04 2.603382e-02 0.000000e+00
 0.000000e+00 0.000000e+00 0.000000e+00
 -7.116726e-03 5.909297e-02 0.000000e+00
 -9.122402e-04 2.253673e-02 0.000000e+00
 -2.169715e-03 4.022097e-02 0.000000e+00
 -1.154401e-01 1.161666e-02 0.000000e+00
 -1.167472e-01 1.296110e-02 0.000000e+00
 -1.168448e-01 1.095980e-02 0.000000e+00
 -4.625129e-02 1.339582e-03 0.000000e+00
 -4.272080e-02 1.198235e-03 0.000000e+00
 0.000000e+00 0.000000e+00 0.000000e+00
 -1.109765e-03 1.909476e-02 0.000000e+00
 0.000000e+00 0.000000e+00 0.000000e+00
 -3.059713e-03 1.708599e-02 0.000000e+00
 -2.718423e-03 2.325065e-02 0.000000e+00
 0.000000e+00 0.000000e+00 0.000000e+00
 4.796374e-04 1.152407e-01 0.000000e+00
 3.951373e-04 1.165456e-01 0.000000e+00
 1.444943e-04 1.159875e-01 0.000000e+00
 3.993741e-04 9.733918e-02 0.000000e+00
 4.333399e-04 1.124795e-01 0.000000e+00
 2.629884e-04 1.092248e-01 0.000000e+00
 -8.008120e-02 4.681830e-03 0.000000e+00
 -4.808308e-02 2.732434e-03 0.000000e+00
 -2.673129e-02 7.544717e-04 0.000000e+00
 -2.479533e-02 6.673798e-04 0.000000e+00
 0.000000e+00 0.000000e+00 0.000000e+00
 -1.088849e-01 1.624414e-02 0.000000e+00
 -1.057164e-01 1.711217e-02 0.000000e+00
 -1.164039e-01 1.785650e-02 0.000000e+00
 -1.154612e-01 1.337576e-02 0.000000e+00
 -1.159533e-01 1.370645e-02 0.000000e+00
 5.739119e-04 8.564176e-02 0.000000e+00
 2.668299e-04 7.146944e-02 0.000000e+00
 1.237060e-04 3.988019e-02 0.000000e+00
 -5.880591e-02 1.758329e-02 0.000000e+00
 -5.355131e-02 2.579737e-02 0.000000e+00
 -6.599598e-02 2.737951e-02 0.000000e+00
 -4.376123e-02 2.897318e-02 0.000000e+00
 -4.612996e-02 3.817612e-02 0.000000e+00
 -1.416040e-02 1.151836e-01 0.000000e+00
 -6.598313e-03 1.181008e-01 0.000000e+00
 -1.107934e-02 1.190896e-01 0.000000e+00
 -9.522854e-02 5.920133e-03 0.000000e+00
 -1.067628e-01 7.751973e-03 0.000000e+00
 -1.329600e-01 1.700806e-02 0.000000e+00
 -1.221631e-01 1.865609e-02 0.000000e+00
 -1.281199e-01 1.924074e-02 0.000000e+00
 -1.057521e-01 9.098818e-03 0.000000e+00
 -1.149865e-01 1.200977e-02 0.000000e+00
 -1.089822e-01 1.077234e-02 0.000000e+00
 1.196154e-03 1.182673e-01 0.000000e+00
 -1.611855e-03 1.197786e-01 0.000000e+00
 -7.063822e-04 1.188319e-01 0.000000e+00
 9.695219e-04 9.012754e-02 0.000000e+00
 5.728149e-04 5.972704e-02 0.000000e+00
 -1.177432e-01 2.569214e-02 0.000000e+00
 -1.176078e-01 3.094609e-02 0.000000e+00
 -1.312849e-01 3.038436e-02 0.000000e+00
 -1.678444e-03 2.789483e-03 0.000000e+00
 -2.148758e-03 7.723557e-03 0.000000e+00
 0.000000e+00 0.000000e+00 0.000000e+00
 -1.154822e-01 9.806427e-03 0.000000e+00
 -2.284395e-02 4.580716e-02 0.000000e+00
 -3.329526e-02 3.314914e-02 0.000000e+00
 -2.090244e-02 3.424641e-02 0.000000e+00
 -1.117849e-01 2.226776e-02 0.000000e+00
 -1.213372e-01 2.126260e-02 0.000000e+00
 -1.066903e-01 1.938405e-02 0.000000e+00
 -8.695919e-02 1.628417e-02 0.000000e+00
 -8.547338e-02 1.354882e-02 0.000000e+00
 -7.625323e-02 1.092298e-02 0.000000e+00
 4.901781e-04 1.047456e-01 0.000000e+00
 2.076559e-04 8.497298e-02 0.000000e+00
 1.332278e-03 1.144664e-01 0.000000e+00
 2.007267e-03 1.131082e-01 0.000000e+00
 1.495208e-03 1.155458e-01 0.000000e+00
 -9.328811e-04 1.181637e-01 0.000000e+00
 -1.350412e-03 1.187260e-01 0.000000e+00
 -3.374648e-03 1.183524e-01 0.000000e+00
 -8.772782e-03 8.273621e-02 0.000000e+00
 -1.522208e-02 9.617672e-02 0.000000e+00
 -1.692383e-02 8.646424e-02 0.000000e+00
 -3.949758e-02 1.109682e-01 0.000000e+00
 -4.029023e-02 9.333869e-02 0.000000e+00
 -2.616148e-02 1.047419e-01 0.000000e+00
 -1.095842e-01 9.050286e-02 0.000000e+00
 -6.333387e-02 6.933264e-02 0.000000e+00
 -6.116781e-02 2.579405e-03 0.000000e+00
 0.000000e+00 0.000000e+00 0.000000e+00
 -1.044061e-01 7.452915e-03 0.000000e+00
 -7.762248e-02 5.399150e-03 0.000000e+00
 -1.062009e-01 8.386280e-03 0.000000e+00
 -1.100140e-01 1.170914e-02 0.000000e+00
 -1.131334e-01 1.142200e-02 0.000000e+00
 -1.061588e-02 1.016972e-01 0.000000e+00
 -1.896849e-02 1.015643e-01 0.000000e+00
 5.450903e-04 1.183579e-01 0.000000e+00
 1.801319e-04 1.169318e-01 0.000000e+00
 6.124313e-04 1.133409e-01 0.000000e+00
 -1.622023e-02 1.233471e-01 0.000000e+00
 -1.804359e-02 1.230946e-01 0.000000e+00
 -3.000457e-02 1.213764e-01 0.000000e+00
 -1.166289e-01 1.255921e-02 0.000000e+00
 -1.149118e-01 1.292938e-02 0.000000e+00
 -1.175204e-01 1.285218e-02 0.000000e+00
 -8.721341e-02 9.859508e-03 0.000000e+00
 -9.590230e-02 1.109993e-02 0.000000e+00
 -7.722856e-02 6.580010e-03 0.000000e+00
 -1.215231e-01 1.476036e-02 0.000000e+00
 -1.179463e-01 1.380761e-02 0.000000e+00
 -1.147007e-01 1.484434e-02 0.000000e+00
 -8.118920e-02 2.363468e-02 0.000000e+00
 -8.472399e-02 1.923192e-02 0.000000e+00
 -7.456066e-02 1.597392e-02 0.000000e+00
 -1.441102e-01 2.557981e-02 0.000000e+00
 -1.460003e-01 3.486473e-02 0.000000e+00
 -4.466026e-02 1.064622e-02 0.000000e+00
 -5.419789e-02 1.006436e-02 0.000000e+00
 -4.301934e-02 4.419425e-03 0.000000e+00
 -2.636341e-02 5.672472e-04 0.000000e+00
 -1.029739e-02 -1.230342e-04 0.000000e+00
 -3.785983e-02 5.220181e-02 0.000000e+00
 -2.748348e-02 5.436257e-02 0.000000e+00
 -2.965086e-02 6.513524e-02 0.000000e+00
 -9.427637e-02 1.612555e-02 0.000000e+00
 -8.352752e-02 1.162813e-02 0.000000e+00
 1.145328e-03 1.164190e-01 0.000000e+00
 1.504564e-03 1.164451e-01 0.000000e+00
 3.310400e-03 1.064445e-01 0.000000e+00
 2.547407e-03 1.149459e-01 0.000000e+00
 2.687468e-03 1.097565e-01 0.000000e+00
 -7.959155e-04 1.063990e-01 0.000000e+00
 -3.036480e-03 1.104871e-01 0.000000e+00
 -1.146992e-03 9.493993e-02 0.000000e+00
 7.299268e-04 1.175001e-01 0.000000e+00
 -2.222926e-02 5.686675e-03 0.000000e+00
 -2.311001e-02 1.414099e-02 0.000000e+00
 -3.485200e-02 1.241496e-02 0.000000e+00
 -1.004133e-02 2.526148e-02 0.000000e+00
 -1.855244e-02 2.115878e-02 0.000000e+00
 7.604380e-04 1.059829e-01 0.000000e+00
 7.031537e-04 9.673728e-02 0.000000e+00
 8.403900e-04 1.184979e-01 0.000000e+00
 8.037416e-04 1.166898e-01 0.000000e+00
 8.682511e-04 1.183210e-01 0.000000e+00
 -9.641737e-02 1.425764e-02 0.000000e+00
 -8.238490e-02 9.489023e-03 0.000000e+00
 -3.949329e-02 2.028155e-03 0.000000e+00
 -5.932740e-02 4.980184e-03 0.000000e+00
 -5.869826e-02 4.834306e-03 0.000000e+00
 -8.967186e-03 1.066636e-01 0.000000e+00
 -2.813792e-02 1.127725e-01 0.000000e+00
 -1.386089e-01 5.236923e-02 0.000000e+00
 -2.226595e-02 6.259954e-04 0.000000e+00
 0.000000e+00 0.000000e+00 0.000000e+00
 -7.099450e-02 7.036739e-03 0.000000e+00
 -3.210653e-02 7.133809e-02 0.000000e+00
 -2.464957e-02 8.499552e-02 0.000000e+00
 -3.377304e-02 7.993760e-02 0.000000e+00
 -7.566641e-03 4.269231e-02 0.000000e+00
 -1.134928e-02 5.925981e-02 0.000000e+00
 -1.514605e-02 5.249267e-02 0.000000e+00
 2.254949e-03 1.022779e-01 0.000000e+00
 1.481715e-03 9.380388e-02 0.000000e+00
 1.759503e-03 8.050739e-02 0.000000e+00
 -8.807006e-02 5.756697e-02 0.000000e+00
 -8.716833e-02 7.562813e-02 0.000000e+00
 -1.034166e-01 6.663720e-02 0.000000e+00
 -4.480575e-03 1.162513e-01 0.000000e+00
 -5.933500e-03 1.115562e-01 0.000000e+00
 -3.640472e-04 2.013036e-02 0.000000e+00
 -2.932911e-04 2.209678e-02 0.000000e+00
 0.000000e+00 0.000000e+00 0.000000e+00
 -1.074791e-02 1.121906e-01 0.000000e+00
 -1.802943e-02 1.112685e-01 0.000000e+00
 -6.984568e-02 8.316423e-02 0.000000e+00
 -5.207807e-02 7.853507e-02 0.000000e+00
 -1.564631e-02 7.838222e-02 0.000000e+00
 -2.140911e-02 7.057441e-02 0.000000e+00
 -1.424671e-02 7.091209e-02 0.000000e+00
 -1.045702e-01 1.076101e-02 0.000000e+00
 -1.109150e-01 1.350395e-02 0.000000e+00
 -1.290121e-01 1.140811e-02 0.000000e+00
 -1.191184e-01 8.624075e-03 0.000000e+00
 -1.328403e-01 1.379108e-02 0.000000e+00
 -1.005403e-01 2.614184e-02 0.000000e+00
 -8.873807e-02 1.893583e-02 0.000000e+00
 -1.359840e-01 2.119132e-02 0.000000e+00
 -1.401099e-01 1.765888e-02 0.000000e+00
 -6.226672e-02 1.111620e-02 0.000000e+00
 -1.220279e-01 6.356102e-02 0.000000e+00
 -1.188874e-01 8.233248e-02 0.000000e+00
 0.000000e+00 0.000000e+00 0.000000e+00
 -5.080428e-03 1.217527e-01 0.000000e+00
 -1.167134e-03 1.191907e-01 0.000000e+00
 2.751854e-03 1.133967e-01 0.000000e+00
 1.396724e-03 1.110141e-01 0.000000e+00
 1.191795e-03 1.172787e-01 0.000000e+00
 1.904181e-03 1.166766e-01 0.000000e+00
 -1.183670e-01 9.069280e-03 0.000000e+00
 -1.257685e-01 1.210270e-02 0.000000e+00
 -1.150967e-01 7.905772e-03 0.000000e+00
 -1.221391e-01 1.685342e-02 0.000000e+00
 -1.305681e-01 1.449120e-02 0.000000e+00
 -1.263689e-01 1.511118e-02 0.000000e+00
 -8.732708e-02 5.199976e-03 0.000000e+00
 -9.409673e-02 5.691842e-03 0.000000e+00
 -8.234194e-02 3.734603e-03 0.000000e+00
 -1.097222e-01 6.880896e-03 0.000000e+00
 -1.199094e-01 1.121636e-02 0.000000e+00
 -4.090157e-02 2.130132e-02 0.000000e+00
 -4.192461e-02 9.896700e-02 0.000000e+00
 -5.613730e-02 1.187485e-01 0.000000e+00
 2.949364e-03 7.293143e-02 0.000000e+00
 3.966807e-03 7.890180e-02 0.000000e+00
 3.725448e-03 9.660165e-02 0.000000e+00
 1.404813e-03 4.303820e-02 0.000000e+00
 8.711665e-04 9.798318e-02 0.000000e+00
 4.177771e-03 8.300391e-02 0.000000e+00
 -4.093738e-02 2.357574e-03 0.000000e+00
 -3.639408e-02 1.363224e-03 0.000000e+00
 -4.446442e-02 2.644223e-03 0.000000e+00
 -4.274582e-04 5.283567e-02 0.000000e+00
 -1.218855e-03 8.240053e-02 0.000000e+00
 4.051805e-04 7.174393e-02 0.000000e+00
 5.524755e-04 8.828847e-02 0.000000e+00
 2.403937e-04 9.765845e-02 0.000000e+00
 3.716460e-04 1.181531e-01 0.000000e+00
 7.529802e-04 1.182945e-01 0.000000e+00
 -3.617400e-04 1.132175e-01 0.000000e+00
 -1.034629e-01 1.372632e-02 0.000000e+00
 -9.978547e-02 1.080973e-02 0.000000e+00
 -8.308690e-02 5.307202e-03 0.000000e+00
 -7.511837e-02 4.912393e-03 0.000000e+00
 -9.502013e-02 8.125703e-03 0.000000e+00
 1.213890e-03 1.070152e-01 0.000000e+00
 9.199196e-04 1.139596e-01 0.000000e+00
 4.616538e-04 7.799092e-02 0.000000e+00
 6.733635e-04 1.061638e-01 0.000000e+00
 -5.375378e-02 1.160789e-01 0.000000e+00
 -7.395324e-02 1.107654e-01 0.000000e+00
 -9.704665e-02 1.017171e-01 0.000000e+00
 -7.924199e-02 9.499787e-02 0.000000e+00
 -1.153532e-01 9.815862e-03 0.000000e+00
 -1.007842e-01 2.089631e-02 0.000000e+00
 -1.121785e-01 8.083881e-03 0.000000e+00
 -1.026682e-01 1.745302e-02 0.000000e+00
 -8.243497e-02 3.181172e-02 0.000000e+00
 -7.676638e-02 4.187948e-02 0.000000e+00
 -1.171017e-01 4.572636e-02 0.000000e+00