<?xml version="1.0"?>
<VTKFile type="UnstructuredGrid"  version="0.1"  >
<UnstructuredGrid>
<Piece  NumberOfPoints="505" NumberOfCells="928">
<Points>
<DataArray  type="Float32"  NumberOfComponents="3"  format="ascii">
0 0 0
1 0 0
0 1 0
1 0.5 0
0.5 0.5 0
0.5 1 0
0.1 0 0
0.2 0 0
0.3 0 0
0.4 0 0
0.5 0 0
0.6 0 0
0.7 0 0
0.8 0 0
0.9 0 0
0 0.9 0
0 0.8 0
0 0.7 0
0 0.6 0
0 0.5 0
0 0.4 0
0 0.3 0
0 0.2 0
0 0.1 0
0.9 0.5 0
0.8 0.5 0
0.7 0.5 0
0.6 0.5 0
0.5 0.6 0
0.5 0.7 0
0.5 0.8 0
0.5 0.9 0
0.1 1 0
0.2 1 0
0.3 1 0
0.4 1 0
1 0.1 0
1 0.2 0
1 0.3 0
1 0.4 0
0.300178 0.296564 0
0.247566 0.664879 0
0.639694 0.259804 0
0.06564 0.06472 0
0.04439 0.954144 0
0.932418 0.064715 0
0.951013 0.456419 0
0.437622 0.939659 0
0.195334 0.464441 0
0.483382 0.329596 0
0.834786 0.236295 0
0.307228 0.81139 0
0.178229 0.173372 0
0.366998 0.134199 0
0.547485 0.14214 0
0.124832 0.74927 0
0.160163 0.896658 0
0.342556 0.535243 0
0.147651 0.342018 0
0.729803 0.127878 0
0.725981 0.357775 0
0.121369 0.600441 0
0.372954 0.70814 0
0.908503 0.151525 0
0.89851 0.333305 0
0.556275 0.400898 0
0.259184 0.092178 0
0.46329 0.194362 0
0.423773 0.869712 0
0.22823 0.818162 0
0.081292 0.144905 0
0.082979 0.831935 0
0.549999 0.065419 0
0.371537 0.407588 0
0.642628 0.097865 0
0.459835 0.086595 0
0.108565 0.418567 0
0.273082 0.902112 0
0.256598 0.556659 0
0.11951 0.509541 0
0.234147 0.370527 0
0.097453 0.253261 0
0.638438 0.342389 0
0.554656 0.224779 0
0.373432 0.237603 0
0.339663 0.62579 0
0.27079 0.747786 0
0.733958 0.266592 0
0.928527 0.244458 0
0.853116 0.071497 0
0.818426 0.404817 0
0.280194 0.200604 0
0.417859 0.565185 0
0.147241 0.079056 0
0.389149 0.789957 0
0.42808 0.654642 0
0.343469 0.059202 0
0.086765 0.684153 0
0.162043 0.675011 0
0.809252 0.14201 0
0.364337 0.928607 0
0.077532 0.916553 0
0.159064 0.807906 0
0.302124 0.454032 0
0.205909 0.272176 0
0.449664 0.407415 0
0.66041 0.423241 0
0.562201 0.303789 0
0.802658 0.320211 0
0.614551 0.182931 0
0.390944 0.331035 0
0.687136 0.18846 0
0.070577 0.342498 0
0.741087 0.437361 0
0.176989 0.547528 0
0.710251 0.07409 0
0.192845 0.608574 0
0.171114 0.398277 0
0.058959 0.753084 0
0.904 0.425508 0
0.438039 0.730373 0
0.057223 0.475897 0
0.058502 0.552106 0
0.330493 0.750997 0
0.312295 0.699131 0
0.684882 0.307111 0
0.053312 0.627311 0
0.198798 0.743695 0
0.392326 0.069953 0
0.351519 0.860283 0
0.397134 0.477694 0
0.319385 0.371198 0
0.767351 0.069505 0
0.441954 0.271171 0
0.759504 0.192785 0
0.855661 0.457701 0
0.500847 0.264652 0
0.916209 0.0323575 0
0.966209 0.0323575 0
0.95 0 0
0.578137 0.450449 0
0.528137 0.450449 0
0.55 0.5 0
0.03282 0.08236 0
0.03282 0.03236 0
0 0.05 0
0.502969 0.404157 0
0.474832 0.453708 0
0.468811 0.91983 0
0.468811 0.96983 0
0.5 0.95 0
0.072195 0.977072 0
0.022195 0.977072 0
0.05 1 0
0.022195 0.927072 0
0 0.95 0
0.060961 0.935348 0
0.038766 0.908276 0
0.106441 0.071888 0
0.123621 0.039528 0
0.08282 0.03236 0
0.0414895 0.815967 0
0.0414895 0.865968 0
0 0.85 0
0.173621 0.039528 0
0.15 0 0
0.05 0 0
0.301327 0.07569 0
0.321735 0.029601 0
0.279592 0.046089 0
0.070969 0.792509 0
0.0294795 0.776542 0
0.0294795 0.726542 0
0 0.75 0
0.114267 0.111981 0
0.073466 0.104813 0
0.229592 0.046089 0
0.25 0 0
0.371735 0.029601 0
0.35 0 0
0.479917 0.0432975 0
0.429918 0.0432975 0
0.45 0 0
0.461562 0.140479 0
0.413416 0.110397 0
0.415144 0.16428 0
0.574999 0.0327095 0
0.525 0.0327095 0
0.55 0 0
0.596313 0.081642 0
0.621314 0.0489325 0
0.927507 0.440964 0
0.902 0.462754 0
0.925507 0.47821 0
0.0700385 0.655732 0
0.026656 0.663655 0
0.0433825 0.692076 0
0.026656 0.613655 0
0 0.65 0
0.276766 0.370862 0
0.309781 0.333881 0
0.267162 0.333545 0
0.458929 0.582593 0
0.458929 0.532593 0
0.5 0.55 0
0.422969 0.609913 0
0.46404 0.627321 0
0.43306 0.692508 0
0.46902 0.715186 0
0.46404 0.677321 0
0.46902 0.765186 0
0.5 0.75 0
0.180082 0.948329 0
0.130082 0.948329 0
0.15 1 0
0.87983 0.441605 0
0.87783 0.478851 0
0.975507 0.42821 0
0.975507 0.47821 0
1 0.45 0
0.676439 0.0859775 0
0.705125 0.037045 0
0.671314 0.0489325 0
0.779756 0.421089 0
0.770544 0.46868 0
0.809213 0.452408 0
0.738801 0.0717975 0
0.733675 0.0347525 0
0.95 0.5 0
0.720544 0.46868 0
0.75 0.5 0
0.029251 0.526053 0
0.029251 0.576053 0
0 0.55 0
0.089006 0.530824 0
0.0899355 0.576273 0
0.12044 0.554991 0
0.461886 0.884856 0
0.461886 0.834856 0
0.5 0.85 0
0.089571 0.380533 0
0.0352885 0.371249 0
0.0542825 0.409284 0
0.918515 0.197991 0
0.964263 0.222229 0
0.954252 0.175762 0
0.630205 0.46162 0
0.680205 0.46162 0
0.65 0.5 0
0.0352885 0.321249 0
0 0.35 0
0.0487265 0.226631 0
0.0487265 0.276631 0
0 0.25 0
0.286541 0.951056 0
0.236541 0.951056 0
0.25 1 0
0.382169 0.964303 0
0.332168 0.964303 0
0.35 1 0
0.966209 0.0823575 0
1 0.05 0
0.876558 0.0357485 0
0.826558 0.0357485 0
0.85 0 0
0.710547 0.227526 0
0.663415 0.224132 0
0.686826 0.263198 0
0.964263 0.272229 0
1 0.25 0
0.40098 0.934133 0
0.418811 0.96983 0
0.45 1 0
0.326813 0.219104 0
0.290186 0.248584 0
0.336805 0.267084 0
0.243052 0.23639 0
0.253043 0.28437 0
0.224721 0.582616 0
0.220205 0.636726 0
0.252082 0.610769 0
0.92046 0.10812 0
0.954252 0.125762 0
0.66166 0.32475 0
0.662288 0.283458 0
0.639066 0.301096 0
0.949255 0.366653 0
0.949255 0.316653 0
1 0.35 0
0.291542 0.723459 0
0.27993 0.682005 0
0.259178 0.706333 0
0.394055 0.89916 0
0.430698 0.904686 0
0.531524 0.28422 0
0.492115 0.297124 0
0.522791 0.316692 0
0.040646 0.122453 0
0.040646 0.172453 0
0 0.15 0
1 0.15 0
0.151681 0.262718 0
0.192069 0.222774 0
0.137841 0.213317 0
0.558428 0.264284 0
0.600947 0.281797 0
0.597175 0.242291 0
0.508973 0.20957 0
0.551071 0.183459 0
0.505387 0.168251 0
0.118847 0.906605 0
0.088766 0.958276 0
0.3123 0.881198 0
0.329373 0.835836 0
0.290155 0.856751 0
0.18042 0.709353 0
0.223182 0.704287 0
0.204805 0.669945 0
0.114037 0.464054 0
0.157422 0.486991 0
0.15195 0.441504 0
0.279361 0.505346 0
0.248729 0.459236 0
0.225966 0.51055 0
0.423399 0.442555 0
0.448567 0.488847 0
0.892767 0.068106 0
0.65 0 0
0.901255 0.379406 0
0.952 0.412754 0
0.858877 0.146767 0
0.822019 0.189153 0
0.871644 0.19391 0
0.14825 0.528535 0
0.186162 0.505985 0
0.178931 0.775801 0
0.161815 0.746482 0
0.141948 0.778588 0
0.29813 0.591225 0
0.34111 0.580516 0
0.299577 0.545951 0
0.913519 0.288882 0
0.881657 0.240376 0
0.866648 0.2848 0
0.664882 0.143162 0
0.708469 0.158169 0
0.686215 0.112871 0
0.768308 0.293401 0
0.818722 0.278253 0
0.784372 0.251443 0
0.407693 0.254387 0
0.452622 0.232766 0
0.418361 0.215983 0
0.559238 0.352343 0
0.519829 0.365247 0
0.269689 0.146391 0
0.323596 0.167402 0
0.313091 0.113188 0
0.367897 0.0645775 0
0.396163 0.0349765 0
0.220028 0.321352 0
0.17678 0.307097 0
0.190899 0.356272 0
0.584604 0.203855 0
0.581018 0.162535 0
0.250656 0.860137 0
0.267729 0.814776 0
0.359821 0.770477 0
0.31886 0.781193 0
0.348189 0.800674 0
0.124404 0.679582 0
0.141706 0.637726 0
0.104067 0.642297 0
0.216622 0.899385 0
0.203213 0.085617 0
0.162735 0.126214 0
0.218707 0.132775 0
0.0893725 0.199083 0
0.129761 0.159139 0
0.121022 0.819921 0
0.103905 0.790602 0
0.193647 0.813034 0
0.159614 0.852282 0
0.194196 0.85741 0
0.650843 0.185696 0
0.628589 0.140398 0
0.504917 0.076007 0
0.50366 0.114367 0
0.548742 0.103779 0
0.378761 0.595487 0
0.380208 0.550214 0
0.466523 0.368506 0
0.783675 0.0347525 0
0.75 0 0
0.595056 0.120002 0
0.20263 0.384402 0
0.183224 0.431359 0
0.214741 0.417484 0
0.084015 0.29788 0
0.109114 0.342258 0
0.122552 0.29764 0
0.370334 0.82512 0
0.387646 0.864998 0
0.406461 0.829835 0
0.355164 0.351116 0
0.345461 0.389393 0
0.38124 0.369312 0
0.177444 0.641792 0
0.157107 0.604507 0
0.0286115 0.437949 0
0.0286115 0.487949 0
0 0.45 0
0.184917 0.578051 0
0.216794 0.552094 0
0.310754 0.412615 0
0.268135 0.41228 0
0.13984 0.408422 0
0.159382 0.370147 0
0.128108 0.380293 0
0.784378 0.167398 0
0.797145 0.21454 0
0.649424 0.382815 0
0.693196 0.390508 0
0.682209 0.350082 0
0.471401 0.267911 0
0.482069 0.229507 0
0.600319 0.323089 0
0.597356 0.371644 0
0.370215 0.185901 0
0.420304 0.369225 0
0.410601 0.407502 0
0.5 0.65 0
0.293615 0.645334 0
0.325979 0.66246 0
0.342624 0.703635 0
0.356309 0.666965 0
0.24951 0.782974 0
0.289009 0.779588 0
0.810542 0.362514 0
0.76432 0.338993 0
0.772204 0.381296 0
0.70942 0.286852 0
0.705431 0.332443 0
0.729969 0.312184 0
0.831184 0.106754 0
0.88081 0.111511 0
0.700748 0.430301 0
0.733534 0.397568 0
0.850584 0.326758 0
0.229212 0.186988 0
0.407496 0.52144 0
0.369845 0.506468 0
0.413594 0.760165 0
0.405497 0.719256 0
0.381051 0.749049 0
0.444574 0.794979 0
0.383872 0.640216 0
0.400517 0.681391 0
0.355233 0.0967005 0
0.42608 0.078274 0
0.379662 0.102076 0
0.055907 0.589708 0
0.0873405 0.613876 0
0.072862 0.718619 0
0.0918955 0.751177 0
0.105798 0.716711 0
0.234794 0.74574 0
0.213514 0.780928 0
0.143437 0.712141 0
0.72332 0.190623 0
0.744653 0.160332 0
0.788301 0.105758 0
0.748577 0.0986915 0
0.769527 0.134944 0
0.357928 0.894445 0
0.318709 0.915359 0
0.0802555 0.874244 0
0.121571 0.864297 0
0.32234 0.494638 0
0.349629 0.465863 0
0.384335 0.442641 0
0.336831 0.43081 0
0.608343 0.412069 0
0.527752 0.244716 0
0.858468 0.369061 0
0.627123 0.221367 0
0.382188 0.284319 0
0.345561 0.3138 0
0.437163 0.330315 0
0.746731 0.229689 0
0.149179 0.573985 0
0.720027 0.100984 0
0.810234 0.070501 0
0.861213 0.415162 0
0.827831 0.478851 0
0.85 0.5 0
0.082894 0.447232 0
0.0883665 0.492719 0
0.0578625 0.514002 0
0.300642 0.749391 0
0.351723 0.729569 0
0.321394 0.725064 0
0.416449 0.301103 0
0.462668 0.300384 0
0.837044 0.431259 0
</DataArray>
</Points>
<Cells>
<DataArray  type="UInt32"  Name="connectivity"  format="ascii">
1 138 139 
14 137 139 
45 137 138 
137 138 139 
4 141 142 
27 140 142 
65 140 141 
140 141 142 
0 144 145 
23 143 145 
43 143 144 
143 144 145 
4 141 147 
65 141 146 
105 146 147 
141 146 147 
5 149 150 
31 148 150 
47 148 149 
148 149 150 
2 152 153 
32 151 153 
44 151 152 
151 152 153 
2 152 155 
15 154 155 
44 152 154 
152 154 155 
15 154 157 
44 154 156 
101 156 157 
154 156 157 
6 159 160 
43 158 160 
93 158 159 
158 159 160 
15 162 163 
16 161 163 
71 161 162 
161 162 163 
6 159 165 
7 164 165 
93 159 164 
159 164 165 
[...]
<PointData  Vectors="u"> 
<DataArray  type="Float32"  Name="u"  NumberOfComponents="3" format="ascii">
 0.000000e+00 0.000000e+00 0.000000e+00
 0.000000e+00 0.000000e+00 0.000000e+00
 0.000000e+00 0.000000e+00 0.000000e+00
 0.000000e+00 0.000000e+00 0.000000e+00
 0.000000e+00 0.000000e+00 0.000000e+00
 0.000000e+00 0.000000e+00 0.000000e+00
 0.000000e+00 0.000000e+00 0.000000e+00
 0.000000e+00 0.000000e+00 0.000000e+00
 0.000000e+00 0.000000e+00 0.000000e+00
 0.000000e+00 0.000000e+00 0.000000e+00
 0.000000e+00 0.000000e+00 0.000000e+00
 0.000000e+00 0.000000e+00 0.000000e+00
 0.000000e+00 0.000000e+00 0.000000e+00
 0.000000e+00 0.000000e+00 0.000000e+00
 0.000000e+00 0.000000e+00 0.000000e+00
 0.000000e+00 0.000000e+00 0.000000e+00
 0.000000e+00 0.000000e+00 0.000000e+00
 0.000000e+00 0.000000e+00 0.000000e+00
 0.000000e+00 0.000000e+00 0.000000e+00
 0.000000e+00 0.000000e+00 0.000000e+00
 0.000000e+00 0.000000e+00 0.000000e+00
 0.000000e+00 0.000000e+00 0.000000e+00
 0.000000e+00 0.000000e+00 0.000000e+00
 0.000000e+00 0.000000e+00 0.000000e+00
 0.000000e+00 0.000000e+00 0.000000e+00
 0.000000e+00 0.000000e+00 0.000000e+00
 0.000000e+00 0.000000e+00 0.000000e+00
 0.000000e+00 0.000000e+00 0.000000e+00
 0.000000e+00 0.000000e+00 0.000000e+00
 0.000000e+00 0.000000e+00 0.000000e+00
 0.000000e+00 0.000000e+00 0.000000e+00
 0.000000e+00 0.000000e+00 0.000000e+00
 2.003115e-04 6.644238e-02 0.000000e+00
 3.262891e-04 9.450291e-02 0.000000e+00
 4.307525e-04 9.099130e-02 0.000000e+00
 3.418872e-04 5.869019e-02 0.000000e+00
 -6.806758e-02 5.887669e-03 0.000000e+00
 -9.486904e-02 1.184400e-02 0.000000e+00
 -9.073180e-02 1.242040e-02 0.000000e+00
 -5.728489e-02 6.479770e-03 0.000000e+00
 -4.865892e-02 2.750928e-02 0.000000e+00
 -8.851741e-04 9.726448e-02 0.000000e+00
 -9.267190e-02 1.504661e-02 0.000000e+00
 6.982289e-04 -7.364267e-04 0.000000e+00
 1.218994e-04 1.913465e-02 0.000000e+00
 -3.646942e-02 2.658079e-03 0.000000e+00
 -1.212399e-02 1.847107e-03 0.000000e+00
 3.906170e-04 2.830263e-02 0.000000e+00
 -1.956010e-02 7.540119e-02 0.000000e+00
 -1.064475e-01 2.841619e-02 0.000000e+00
 -9.159975e-02 1.182709e-02 0.000000e+00
 3.255887e-03 9.084884e-02 0.000000e+00
 -2.245158e-02 1.657041e-02 0.000000e+00
 -3.805969e-02 1.590316e-03 0.000000e+00
 -5.366018e-02 5.861596e-03 0.000000e+00
 1.425015e-03 8.187664e-02 0.000000e+00
 1.075377e-03 9.150367e-02 0.000000e+00
 -2.870375e-02 9.516526e-02 0.000000e+00
 -1.479707e-02 4.959537e-02 0.000000e+00
 -6.412566e-02 6.341683e-03 0.000000e+00
 -9.829601e-02 9.036847e-03 0.000000e+00
 -1.571436e-03 7.810380e-02 0.000000e+00
 5.409571e-03 7.201887e-02 0.000000e+00
 -8.558926e-02 8.203059e-03 0.000000e+00
 -9.072137e-02 9.693417e-03 0.000000e+00
 -9.881139e-02 1.318825e-02 0.000000e+00
 -1.978567e-02 1.741444e-03 0.000000e+00
 -6.007345e-02 8.533060e-03 0.000000e+00
 1.165921e-03 3.933462e-02 0.000000e+00
 2.225321e-03 9.499269e-02 0.000000e+00
 -4.783809e-03 6.943511e-03 0.000000e+00
 8.842909e-04 5.491933e-02 0.000000e+00
 -1.638965e-02 8.100036e-04 0.000000e+00
 -8.184472e-02 6.672961e-02 0.000000e+00
 -4.179196e-02 3.696073e-03 0.000000e+00
 -2.468879e-02 3.551741e-04 0.000000e+00
 -6.564926e-03 5.495640e-02 0.000000e+00
 1.497623e-03 9.272219e-02 0.000000e+00
 -1.661118e-02 9.494848e-02 0.000000e+00
 -5.062783e-03 7.036387e-02 0.000000e+00
 -3.376241e-02 5.139899e-02 0.000000e+00
 -7.766752e-03 2.689999e-02 0.000000e+00
 -1.081880e-01 1.250706e-02 0.000000e+00
 -7.784157e-02 1.352162e-02 0.000000e+00
 -5.646230e-02 1.307177e-02 0.000000e+00
 -1.706960e-03 9.097657e-02 0.000000e+00
 3.047185e-03 9.475221e-02 0.000000e+00
 -9.451912e-02 1.358598e-02 0.000000e+00
 -9.312753e-02 1.203190e-02 0.000000e+00
 -3.748832e-02 2.212139e-03 0.000000e+00
 -6.647663e-02 4.222618e-03 0.000000e+00
 -3.908387e-02 1.153725e-02 0.000000e+00
 -6.771509e-03 4.306615e-02 0.000000e+00
 -6.236862e-03 3.017525e-03 0.000000e+00
 3.517091e-03 6.328174e-02 0.000000e+00
 4.523453e-03 2.660062e-02 0.000000e+00
 -1.015921e-02 -7.232132e-04 0.000000e+00
 8.747098e-04 5.913421e-02 0.000000e+00
 -4.648463e-07 9.251416e-02 0.000000e+00
 -7.593879e-02 7.130904e-03 0.000000e+00
 1.047855e-03 7.769150e-02 0.000000e+00
 4.486987e-04 4.925192e-02 0.000000e+00
 1.673846e-03 9.186631e-02 0.000000e+00
 -4.917749e-02 7.999561e-02 0.000000e+00
 -2.773927e-02 3.203600e-02 0.000000e+00
 -1.030302e-01 4.905129e-02 0.000000e+00
 -6.386149e-02 3.231589e-03 0.000000e+00
 -1.046525e-01 1.825928e-02 0.000000e+00
 -9.708915e-02 1.062624e-02 0.000000e+00
 -7.156375e-02 1.075409e-02 0.000000e+00
 -8.240630e-02 3.707670e-02 0.000000e+00
 -7.846617e-02 1.140713e-02 0.000000e+00
 -3.005135e-03 2.913130e-02 0.000000e+00
 -4.259477e-02 1.918484e-03 0.000000e+00
 -9.197569e-03 8.751354e-02 0.000000e+00
 -3.065302e-02 2.223386e-03 0.000000e+00
 -4.927926e-03 9.403207e-02 0.000000e+00
 -1.802986e-02 6.120147e-02 0.000000e+00
 7.733261e-04 3.477257e-02 0.000000e+00
 -4.291381e-02 3.283442e-03 0.000000e+00
 3.031385e-03 2.153896e-02 0.000000e+00
 -8.391063e-04 3.089241e-02 0.000000e+00
 -1.684652e-04 3.465809e-02 0.000000e+00
 4.493667e-03 8.783460e-02 0.000000e+00
 3.446651e-03 9.287506e-02 0.000000e+00
 -1.026165e-01 1.347826e-02 0.000000e+00
 4.422650e-04 3.089136e-02 0.000000e+00
 1.744364e-03 9.597181e-02 0.000000e+00
 -1.501228e-02 -6.338194e-04 0.000000e+00
 2.323825e-03 8.185332e-02 0.000000e+00
 -5.995278e-02 7.663826e-02 0.000000e+00
 -6.156985e-02 5.118573e-02 0.000000e+00
 -3.095088e-02 1.954232e-03 0.000000e+00
 -7.812330e-02 1.975896e-02 0.000000e+00
 -8.395266e-02 1.104720e-02 0.000000e+00
 -1.622976e-02 9.670996e-04 0.000000e+00
 -8.555174e-02 1.780525e-02 0.000000e+00
 -8.604451e-03 7.574171e-04 0.000000e+00
 -1.088343e-02 1.323998e-03 0.000000e+00
 0.000000e+00 0.000000e+00 0.000000e+00
 -4.137004e-02 2.081144e-03 0.000000e+00
 -5.275639e-02 8.766836e-03 0.000000e+00
 0.000000e+00 0.000000e+00 0.000000e+00
 3.910585e-04 -1.832833e-03 0.000000e+00
 1.116867e-03 -1.102314e-03 0.000000e+00
 0.000000e+00 0.000000e+00 0.000000e+00
 -1.047003e-01 2.706211e-02 0.000000e+00
 -6.614899e-02 3.174872e-02 0.000000e+00
 1.801562e-04 3.771843e-03 0.000000e+00
 1.141567e-04 3.975498e-03 0.000000e+00
 0.000000e+00 0.000000e+00 0.000000e+00
 1.612163e-04 4.460601e-02 0.000000e+00
 3.585591e-05 2.485248e-03 0.000000e+00
 7.799829e-05 2.406749e-02 0.000000e+00
 9.458407e-05 2.789074e-03 0.000000e+00
 0.000000e+00 0.000000e+00 0.000000e+00
 2.618993e-04 3.440320e-02 0.000000e+00
 2.314943e-04 1.417661e-02 0.000000e+00
 -1.778690e-03 1.442852e-03 0.000000e+00
 1.026844e-03 2.922564e-04 0.000000e+00
 1.925145e-03 -4.556394e-04 0.000000e+00
 3.748607e-04 1.880935e-02 0.000000e+00
 3.111004e-04 1.818858e-02 0.000000e+00
 0.000000e+00 0.000000e+00 0.000000e+00
 -6.892839e-04 3.574857e-04 0.000000e+00
 0.000000e+00 0.000000e+00 0.000000e+00
 0.000000e+00 0.000000e+00 0.000000e+00
 -1.598123e-02 -1.099356e-05 0.000000e+00
 2.220589e-04 -5.683305e-04 0.000000e+00
 -5.335607e-03 -2.779288e-04 0.000000e+00
 8.701593e-04 4.516591e-02 0.000000e+00
 3.022240e-04 9.034821e-03 0.000000e+00
 3.591854e-04 9.789607e-03 0.000000e+00
 0.000000e+00 0.000000e+00 0.000000e+00
 -6.969272e-03 5.884000e-03 0.000000e+00
 -2.045647e-03 1.845421e-03 0.000000e+00
 -4.210804e-03 1.794197e-04 0.000000e+00
 0.000000e+00 0.000000e+00 0.000000e+00
 5.153499e-04 -5.062719e-04 0.000000e+00
 0.000000e+00 0.000000e+00 0.000000e+00
 -3.701561e-03 -2.270408e-04 0.000000e+00
 -3.641415e-03 -4.495548e-04 0.000000e+00
 0.000000e+00 0.000000e+00 0.000000e+00
 -4.615201e-02 3.402314e-03 0.000000e+00
 -3.293255e-02 5.072394e-04 0.000000e+00
 -4.850669e-02 4.282923e-03 0.000000e+00
 3.779211e-04 1.046741e-04 0.000000e+00
 8.747220e-04 -1.215476e-04 0.000000e+00
 0.000000e+00 0.000000e+00 0.000000e+00
 -2.877337e-02 2.142607e-03 0.000000e+00
 -9.913375e-03 7.751467e-04 0.000000e+00
 -2.729868e-02 2.523890e-03 0.000000e+00
 -9.689321e-03 9.572988e-04 0.000000e+00
 7.035542e-04 4.821072e-04 0.000000e+00
 6.256685e-04 4.567326e-02 0.000000e+00
 3.332689e-04 8.565351e-03 0.000000e+00
 5.652418e-04 2.126955e-02 0.000000e+00
 2.592860e-04 9.118582e-03 0.000000e+00
 0.000000e+00 0.000000e+00 0.000000e+00
 -4.633204e-02 5.000826e-02 0.000000e+00
 -5.505647e-02 3.781053e-02 0.000000e+00
 -4.240200e-02 3.922648e-02 0.000000e+00
 1.761587e-03 -3.451412e-03 0.000000e+00
 -6.793991e-03 6.312796e-03 0.000000e+00
 0.000000e+00 0.000000e+00 0.000000e+00
 2.356004e-03 3.205143e-02 0.000000e+00
 2.449742e-03 -5.874146e-03 0.000000e+00
 3.998559e-03 2.377215e-02 0.000000e+00
 1.383218e-03 -2.381450e-03 0.000000e+00
 2.100064e-03 -2.078130e-03 0.000000e+00
 9.877233e-04 -1.554852e-04 0.000000e+00
 0.000000e+00 0.000000e+00 0.000000e+00
 6.277864e-04 9.375992e-02 0.000000e+00
 4.932978e-04 8.275917e-02 0.000000e+00
 2.729665e-04 8.910155e-02 0.000000e+00
 -2.985640e-02 1.932710e-03 0.000000e+00
 -4.429370e-04 2.929126e-04 0.000000e+00
 -3.527186e-02 4.162521e-03 0.000000e+00
 3.006106e-03 9.955508e-04 0.000000e+00
 -1.494829e-02 2.850754e-03 0.000000e+00
 -3.681036e-02 3.018221e-03 0.000000e+00
 -3.969953e-03 3.856059e-04 0.000000e+00
 -1.214499e-02 8.863259e-04 0.000000e+00
 -5.589036e-02 3.017388e-03 0.000000e+00
 -1.039975e-02 4.114705e-04 0.000000e+00
 -2.327132e-02 1.089321e-03 0.000000e+00
 -3.091479e-02 2.078307e-03 0.000000e+00
 -4.864553e-03 4.301623e-04 0.000000e+00
 0.000000e+00 0.000000e+00 0.000000e+00
 -1.205520e-02 3.963928e-04 0.000000e+00
 0.000000e+00 0.000000e+00 0.000000e+00
 7.582684e-05 1.119728e-02 0.000000e+00
 2.071839e-04 1.140787e-02 0.000000e+00
 0.000000e+00 0.000000e+00 0.000000e+00
 -1.834865e-03 5.653374e-02 0.000000e+00
 -8.373678e-04 5.960042e-02 0.000000e+00
 -3.317578e-03 7.491366e-02 0.000000e+00
 3.491219e-04 8.411202e-03 0.000000e+00
 6.399892e-04 7.070065e-03 0.000000e+00
 0.000000e+00 0.000000e+00 0.000000e+00
 -4.783605e-03 4.246267e-02 0.000000e+00
 -3.185915e-04 1.182553e-02 0.000000e+00
 -1.109353e-03 2.515932e-02 0.000000e+00
 -9.223158e-02 1.074829e-02 0.000000e+00
 -9.407309e-02 1.220124e-02 0.000000e+00
 -9.257203e-02 1.029579e-02 0.000000e+00
 -2.256378e-02 3.587640e-04 0.000000e+00
 -2.070848e-02 6.027648e-04 0.000000e+00
 0.000000e+00 0.000000e+00 0.000000e+00
 -4.743145e-04 9.703093e-03 0.000000e+00
 0.000000e+00 0.000000e+00 0.000000e+00
 -1.871026e-03 9.068202e-03 0.000000e+00
 -1.626750e-03 1.341319e-02 0.000000e+00
 0.000000e+00 0.000000e+00 0.000000e+00
 8.024825e-04 9.193237e-02 0.000000e+00
 7.228448e-04 9.395933e-02 0.000000e+00
 3.796356e-04 9.342226e-02 0.000000e+00
 5.552094e-04 6.952187e-02 0.000000e+00
 6.691662e-04 8.696112e-02 0.000000e+00
 4.389760e-04 8.274532e-02 0.000000e+00
 -5.403595e-02 4.405347e-03 0.000000e+00
 -2.659340e-02 2.580851e-03 0.000000e+00
 -9.732440e-03 6.588429e-04 0.000000e+00
 -8.046144e-03 5.396218e-04 0.000000e+00
 0.000000e+00 0.000000e+00 0.000000e+00
 -8.727446e-02 1.332610e-02 0.000000e+00
 -8.458714e-02 1.368426e-02 0.000000e+00
 -9.401704e-02 1.440749e-02 0.000000e+00
 -9.257182e-02 1.257615e-02 0.000000e+00
 -9.343042e-02 1.295455e-02 0.000000e+00
 7.371235e-04 5.775960e-02 0.000000e+00
 3.543501e-04 4.457161e-02 0.000000e+00
 1.661565e-04 1.778697e-02 0.000000e+00
 -4.664487e-02 1.107447e-02 0.000000e+00
 -4.299925e-02 1.792794e-02 0.000000e+00
 -5.387349e-02 1.924681e-02 0.000000e+00
 -3.460435e-02 2.078714e-02 0.000000e+00
 -3.717342e-02 2.854768e-02 0.000000e+00
 -9.829902e-03 9.455783e-02 0.000000e+00
 -3.304573e-03 9.665650e-02 0.000000e+00
 -6.899345e-03 9.732288e-02 0.000000e+00
 -6.860901e-02 5.465128e-03 0.000000e+00
 -8.022766e-02 7.277865e-03 0.000000e+00
 -1.059960e-01 1.310151e-02 0.000000e+00
 -9.868872e-02 1.474131e-02 0.000000e+00
 -1.033311e-01 1.478648e-02 0.000000e+00
 -7.809085e-02 8.477728e-03 0.000000e+00
 -9.014776e-02 1.122564e-02 0.000000e+00
 -8.222523e-02 1.014810e-02 0.000000e+00
 3.371715e-03 9.425785e-02 0.000000e+00
 1.229186e-03 9.631729e-02 0.000000e+00
 1.743860e-03 9.626265e-02 0.000000e+00
 1.236486e-03 6.203813e-02 0.000000e+00
 6.960637e-04 3.394371e-02 0.000000e+00
 -9.621622e-02 1.889505e-02 0.000000e+00
 -9.652534e-02 2.269500e-02 0.000000e+00
 -1.067976e-01 2.215867e-02 0.000000e+00
 -6.757202e-04 -5.011670e-04 0.000000e+00
 -1.159779e-03 2.481413e-03 0.000000e+00
 0.000000e+00 0.000000e+00 0.000000e+00
 -8.988342e-02 9.283790e-03 0.000000e+00
 -1.734474e-02 3.443615e-02 0.000000e+00
 -2.575826e-02 2.434750e-02 0.000000e+00
 -1.553996e-02 2.473411e-02 0.000000e+00
 -9.091072e-02 1.661427e-02 0.000000e+00
 -9.847276e-02 1.614009e-02 0.000000e+00
 -8.609407e-02 1.480188e-02 0.000000e+00
 -6.895793e-02 1.139372e-02 0.000000e+00
 -6.617217e-02 9.665196e-03 0.000000e+00
 -5.776208e-02 7.106558e-03 0.000000e+00
 7.612800e-04 7.787447e-02 0.000000e+00
 3.066143e-04 5.825358e-02 0.000000e+00
 1.971075e-03 8.989162e-02 0.000000e+00
 2.886074e-03 8.738491e-02 0.000000e+00
 2.348684e-03 9.198338e-02 0.000000e+00
 9.652610e-04 9.511066e-02 0.000000e+00
 9.727584e-04 9.666091e-02 0.000000e+00
 -7.605441e-04 9.639501e-02 0.000000e+00
 -5.963095e-03 6.294778e-02 0.000000e+00
 -1.124005e-02 7.688099e-02 0.000000e+00
 -1.270761e-02 6.841978e-02 0.000000e+00
 -3.152370e-02 9.039812e-02 0.000000e+00
 -3.271496e-02 7.622801e-02 0.000000e+00
 -2.033890e-02 8.599310e-02 0.000000e+00
 -8.325485e-02 6.346135e-02 0.000000e+00
 -3.986990e-02 3.663252e-02 0.000000e+00
 -3.692610e-02 2.321146e-03 0.000000e+00
 0.000000e+00 0.000000e+00 0.000000e+00
 -7.598908e-02 6.752262e-03 0.000000e+00
 -4.983762e-02 5.016421e-03 0.000000e+00
 -8.105146e-02 7.446742e-03 0.000000e+00
 -8.696496e-02 1.020867e-02 0.000000e+00
 -8.996597e-02 1.027915e-02 0.000000e+00
 -7.315287e-03 8.083910e-02 0.000000e+00
 -1.433880e-02 8.255137e-02 0.000000e+00
 1.825538e-03 9.467886e-02 0.000000e+00
 1.557457e-03 9.274246e-02 0.000000e+00
 1.583857e-03 8.798045e-02 0.000000e+00
 -1.096812e-02 9.875004e-02 0.000000e+00
 -1.202369e-02 9.394436e-02 0.000000e+00
 -2.283080e-02 9.745411e-02 0.000000e+00
 -9.311285e-02 1.156636e-02 0.000000e+00
 -9.253391e-02 1.171770e-02 0.000000e+00
 -9.411670e-02 1.150682e-02 0.000000e+00
 -6.439562e-02 7.675715e-03 0.000000e+00
 -7.290939e-02 8.984360e-03 0.000000e+00
 -5.329896e-02 5.075584e-03 0.000000e+00
 -9.745898e-02 1.239945e-02 0.000000e+00
 -9.475006e-02 1.199156e-02 0.000000e+00
 -9.237990e-02 1.266137e-02 0.000000e+00
 -6.621397e-02 1.632766e-02 0.000000e+00
 -6.836108e-02 1.305930e-02 0.000000e+00
 -5.941278e-02 1.018854e-02 0.000000e+00
 -1.140007e-01 1.806622e-02 0.000000e+00
 -1.151438e-01 2.447746e-02 0.000000e+00
 -3.284641e-02 5.946035e-03 0.000000e+00
 -4.102712e-02 5.144128e-03 0.000000e+00
 -2.929224e-02 1.217877e-03 0.000000e+00
 -1.247441e-02 -7.604342e-04 0.000000e+00
 2.569551e-04 -6.221655e-04 0.000000e+00
 -3.032603e-02 4.058202e-02 0.000000e+00
 -2.142073e-02 4.198737e-02 0.000000e+00
 -2.339657e-02 5.147258e-02 0.000000e+00
 -7.445755e-02 1.212141e-02 0.000000e+00
 -6.301727e-02 8.473959e-03 0.000000e+00
 2.000720e-03 9.387752e-02 0.000000e+00
 2.728093e-03 9.360609e-02 0.000000e+00
 4.445841e-03 7.842479e-02 0.000000e+00
 3.924946e-03 8.958028e-02 0.000000e+00
 3.704227e-03 8.267454e-02 0.000000e+00
 6.317835e-04 8.159609e-02 0.000000e+00
 -9.859515e-04 8.692974e-02 0.000000e+00
 1.850595e-04 7.052852e-02 0.000000e+00
 1.291208e-03 9.464427e-02 0.000000e+00
 -1.340854e-02 3.025107e-03 0.000000e+00
 -1.577436e-02 9.207350e-03 0.000000e+00
 -2.491907e-02 7.738088e-03 0.000000e+00
 -6.937470e-03 1.641147e-02 0.000000e+00
 -1.310789e-02 1.420513e-02 0.000000e+00
 1.355187e-03 7.957578e-02 0.000000e+00
 1.288702e-03 7.040132e-02 0.000000e+00
 1.914985e-03 9.518757e-02 0.000000e+00
 1.463654e-03 9.167227e-02 0.000000e+00
 1.634657e-03 9.485247e-02 0.000000e+00
 -7.517642e-02 1.122909e-02 0.000000e+00
 -6.018267e-02 7.109622e-03 0.000000e+00
 -2.074994e-02 6.886990e-04 0.000000e+00
 -3.962899e-02 2.565973e-03 0.000000e+00
 -3.781379e-02 2.913022e-03 0.000000e+00
 -4.413233e-03 7.419706e-02 0.000000e+00
 -1.960893e-02 7.941756e-02 0.000000e+00
 -1.111130e-01 3.809556e-02 0.000000e+00
 -6.115222e-03 4.698365e-04 0.000000e+00
 0.000000e+00 0.000000e+00 0.000000e+00
 -4.905443e-02 4.920466e-03 0.000000e+00
 -2.565559e-02 5.693512e-02 0.000000e+00
 -1.926565e-02 6.839905e-02 0.000000e+00
 -2.707823e-02 6.453721e-02 0.000000e+00
 -5.166326e-03 2.946316e-02 0.000000e+00
 -8.094739e-03 4.390603e-02 0.000000e+00
 -1.109341e-02 3.905115e-02 0.000000e+00
 2.954206e-03 7.424545e-02 0.000000e+00
 1.890592e-03 6.557406e-02 0.000000e+00
 2.172937e-03 5.233599e-02 0.000000e+00
 -7.344137e-02 4.456532e-02 0.000000e+00
 -7.240763e-02 5.946913e-02 0.000000e+00
 -8.560480e-02 5.131684e-02 0.000000e+00
 -1.865666e-03 9.396173e-02 0.000000e+00
 -3.249220e-03 8.920152e-02 0.000000e+00
 1.613117e-05 9.403031e-03 0.000000e+00
 2.907906e-05 1.050017e-02 0.000000e+00
 0.000000e+00 0.000000e+00 0.000000e+00
 -7.144652e-03 9.129771e-02 0.000000e+00
 -1.326219e-02 9.140189e-02 0.000000e+00
 -5.797432e-02 6.662054e-02 0.000000e+00
 -4.301096e-02 6.338081e-02 0.000000e+00
 -1.156864e-02 6.109774e-02 0.000000e+00
 -1.638119e-02 5.529469e-02 0.000000e+00
 -1.045682e-02 5.436140e-02 0.000000e+00
 -8.097946e-02 9.127733e-03 0.000000e+00
 -8.866538e-02 1.160530e-02 0.000000e+00
 -9.677038e-02 7.968538e-03 0.000000e+00
 -8.760031e-02 6.285763e-03 0.000000e+00
 -1.036636e-01 1.053057e-02 0.000000e+00
 -8.240105e-02 1.883906e-02 0.000000e+00
 -7.138434e-02 1.316542e-02 0.000000e+00
 -1.091301e-01 1.562990e-02 0.000000e+00
 -1.077192e-01 1.215994e-02 0.000000e+00
 -4.809244e-02 5.946079e-03 0.000000e+00
 -9.972338e-02 4.791226e-02 0.000000e+00
 -9.529318e-02 6.151397e-02 0.000000e+00
 0.000000e+00 0.000000e+00 0.000000e+00
 -1.478760e-03 9.734887e-02 0.000000e+00
 1.810267e-03 9.225490e-02 0.000000e+00
 4.769502e-03 8.566224e-02 0.000000e+00
 3.811251e-03 8.172115e-02 0.000000e+00
 2.710737e-03 9.480997e-02 0.000000e+00
 3.430531e-03 9.298713e-02 0.000000e+00
 -8.990799e-02 7.649258e-03 0.000000e+00
 -9.843890e-02 9.968404e-03 0.000000e+00
 -8.529111e-02 6.365969e-03 0.000000e+00
 -9.837367e-02 1.367330e-02 0.000000e+00
 -1.032152e-01 1.145151e-02 0.000000e+00
 -1.008612e-01 1.232329e-02 0.000000e+00
 -6.136051e-02 4.475028e-03 0.000000e+00
 -6.773144e-02 5.112939e-03 0.000000e+00
 -5.296599e-02 2.492656e-03 0.000000e+00
 -7.899512e-02 5.236014e-03 0.000000e+00
 -9.407368e-02 9.869928e-03 0.000000e+00
 -3.135544e-02 1.460785e-02 0.000000e+00
 -2.901166e-02 6.380463e-02 0.000000e+00
 -4.283743e-02 8.801690e-02 0.000000e+00
 3.528277e-03 4.448904e-02 0.000000e+00
 4.825216e-03 4.943961e-02 0.000000e+00
 4.763129e-03 6.746709e-02 0.000000e+00
 1.618289e-03 1.906836e-02 0.000000e+00
 3.277968e-03 6.662858e-02 0.000000e+00
 5.410710e-03 5.264910e-02 0.000000e+00
 -2.591414e-02 -4.480345e-05 0.000000e+00
 -1.975931e-02 -2.309830e-04 0.000000e+00
 -2.849049e-02 1.652931e-04 0.000000e+00
 2.091402e-04 3.300089e-02 0.000000e+00
 -5.703213e-05 5.895820e-02 0.000000e+00
 9.243584e-04 4.769947e-02 0.000000e+00
 1.175768e-03 6.258537e-02 0.000000e+00
 1.179628e-03 7.208720e-02 0.000000e+00
 2.252920e-03 9.588448e-02 0.000000e+00
 2.187863e-03 9.569476e-02 0.000000e+00
 1.086629e-03 8.860622e-02 0.000000e+00
 -8.133803e-02 1.130992e-02 0.000000e+00
 -7.636262e-02 8.944059e-03 0.000000e+00
 -5.760321e-02 4.409666e-03 0.000000e+00
 -5.023127e-02 3.932049e-03 0.000000e+00
 -7.030036e-02 6.760005e-03 0.000000e+00
 1.636062e-03 7.991026e-02 0.000000e+00
 1.356699e-03 8.911102e-02 0.000000e+00
 6.621272e-04 5.208252e-02 0.000000e+00
 1.093692e-03 7.952466e-02 0.000000e+00
 -4.302052e-02 9.208641e-02 0.000000e+00
 -5.945885e-02 8.610292e-02 0.000000e+00
 -7.726260e-02 7.664290e-02 0.000000e+00
 -6.512078e-02 7.515177e-02 0.000000e+00
 -8.117987e-02 5.943132e-03 0.000000e+00
 -8.167802e-02 1.521076e-02 0.000000e+00
 -8.382992e-02 7.090630e-03 0.000000e+00
 -8.206027e-02 1.361782e-02 0.000000e+00
 -6.807730e-02 2.301754e-02 0.000000e+00
 -6.372582e-02 3.154671e-02 0.000000e+00
 -9.656707e-02 3.410009e-02 0.000000e+00