<?xml version="1.0"?>
<VTKFile type="UnstructuredGrid"  version="0.1"  >
<UnstructuredGrid>
<Piece  NumberOfPoints="505" NumberOfCells="928">
<Points>
<DataArray  type="Float32"  NumberOfComponents="3"  format="ascii">
0 0 0
1 0 0
0 1 0
1 0.5 0
0.5 0.5 0
0.5 1 0
0.1 0 0
0.2 0 0
0.3 0 0
0.4 0 0
0.5 0 0
0.6 0 0
0.7 0 0
0.8 0 0
0.9 0 0
0 0.9 0
0 0.8 0
0 0.7 0
0 0.6 0
0 0.5 0
0 0.4 0
0 0.3 0
0 0.2 0
0 0.1 0
0.9 0.5 0
0.8 0.5 0
0.7 0.5 0
0.6 0.5 0
0.5 0.6 0
0.5 0.7 0
0.5 0.8 0
0.5 0.9 0
0.1 1 0
0.2 1 0
0.3 1 0
0.4 1 0
1 0.1 0
1 0.2 0
1 0.3 0
1 0.4 0
0.300178 0.296564 0
0.247566 0.664879 0
0.639694 0.259804 0
0.06564 0.06472 0
0.04439 0.954144 0
0.932418 0.064715 0
0.951013 0.456419 0
0.437622 0.939659 0
0.195334 0.464441 0
0.483382 0.329596 0
0.834786 0.236295 0
0.307228 0.81139 0
0.178229 0.173372 0
0.366998 0.134199 0
0.547485 0.14214 0
0.124832 0.74927 0
0.160163 0.896658 0
0.342556 0.535243 0
0.147651 0.342018 0
0.729803 0.127878 0
0.725981 0.357775 0
0.121369 0.600441 0
0.372954 0.70814 0
0.908503 0.151525 0
0.89851 0.333305 0
0.556275 0.400898 0
0.259184 0.092178 0
0.46329 0.194362 0
0.423773 0.869712 0
0.22823 0.818162 0
0.081292 0.144905 0
0.082979 0.831935 0
0.549999 0.065419 0
0.371537 0.407588 0
0.642628 0.097865 0
0.459835 0.086595 0
0.108565 0.418567 0
0.273082 0.902112 0
0.256598 0.556659 0
0.11951 0.509541 0
0.234147 0.370527 0
0.097453 0.253261 0
0.638438 0.342389 0
0.554656 0.224779 0
0.373432 0.237603 0
0.339663 0.62579 0
0.27079 0.747786 0
0.733958 0.266592 0
0.928527 0.244458 0
0.853116 0.071497 0
0.818426 0.404817 0
0.280194 0.200604 0
0.417859 0.565185 0
0.147241 0.079056 0
0.389149 0.789957 0
0.42808 0.654642 0
0.343469 0.059202 0
0.086765 0.684153 0
0.162043 0.675011 0
0.809252 0.14201 0
0.364337 0.928607 0
0.077532 0.916553 0
0.159064 0.807906 0
0.302124 0.454032 0
0.205909 0.272176 0
0.449664 0.407415 0
0.66041 0.423241 0
0.562201 0.303789 0
0.802658 0.320211 0
0.614551 0.182931 0
0.390944 0.331035 0
0.687136 0.18846 0
0.070577 0.342498 0
0.741087 0.437361 0
0.176989 0.547528 0
0.710251 0.07409 0
0.192845 0.608574 0
0.171114 0.398277 0
0.058959 0.753084 0
0.904 0.425508 0
0.438039 0.730373 0
0.057223 0.475897 0
0.058502 0.552106 0
0.330493 0.750997 0
0.312295 0.699131 0
0.684882 0.307111 0
0.053312 0.627311 0
0.198798 0.743695 0
0.392326 0.069953 0
0.351519 0.860283 0
0.397134 0.477694 0
0.319385 0.371198 0
0.767351 0.069505 0
0.441954 0.271171 0
0.759504 0.192785 0
0.855661 0.457701 0
0.500847 0.264652 0
0.916209 0.0323575 0
0.966209 0.0323575 0
0.95 0 0
0.578137 0.450449 0
0.528137 0.450449 0
0.55 0.5 0
0.03282 0.08236 0
0.03282 0.03236 0
0 0.05 0
0.502969 0.404157 0
0.474832 0.453708 0
0.468811 0.91983 0
0.468811 0.96983 0
0.5 0.95 0
0.072195 0.977072 0
0.022195 0.977072 0
0.05 1 0
0.022195 0.927072 0
0 0.95 0
0.060961 0.935348 0
0.038766 0.908276 0
0.106441 0.071888 0
0.123621 0.039528 0
0.08282 0.03236 0
0.0414895 0.815967 0
0.0414895 0.865968 0
0 0.85 0
0.173621 0.039528 0
0.15 0 0
0.05 0 0
0.301327 0.07569 0
0.321735 0.029601 0
0.279592 0.046089 0
0.070969 0.792509 0
0.0294795 0.776542 0
0.0294795 0.726542 0
0 0.75 0
0.114267 0.111981 0
0.073466 0.104813 0
0.229592 0.046089 0
0.25 0 0
0.371735 0.029601 0
0.35 0 0
0.479917 0.0432975 0
0.429918 0.0432975 0
0.45 0 0
0.461562 0.140479 0
0.413416 0.110397 0
0.415144 0.16428 0
0.574999 0.0327095 0
0.525 0.0327095 0
0.55 0 0
0.596313 0.081642 0
0.621314 0.0489325 0
0.927507 0.440964 0
0.902 0.462754 0
0.925507 0.47821 0
0.0700385 0.655732 0
0.026656 0.663655 0
0.0433825 0.692076 0
0.026656 0.613655 0
0 0.65 0
0.276766 0.370862 0
0.309781 0.333881 0
0.267162 0.333545 0
0.458929 0.582593 0
0.458929 0.532593 0
0.5 0.55 0
0.422969 0.609913 0
0.46404 0.627321 0
0.43306 0.692508 0
0.46902 0.715186 0
0.46404 0.677321 0
0.46902 0.765186 0
0.5 0.75 0
0.180082 0.948329 0
0.130082 0.948329 0
0.15 1 0
0.87983 0.441605 0
0.87783 0.478851 0
0.975507 0.42821 0
0.975507 0.47821 0
1 0.45 0
0.676439 0.0859775 0
0.705125 0.037045 0
0.671314 0.0489325 0
0.779756 0.421089 0
0.770544 0.46868 0
0.809213 0.452408 0
0.738801 0.0717975 0
0.733675 0.0347525 0
0.95 0.5 0
0.720544 0.46868 0
0.75 0.5 0
0.029251 0.526053 0
0.029251 0.576053 0
0 0.55 0
0.089006 0.530824 0
0.0899355 0.576273 0
0.12044 0.554991 0
0.461886 0.884856 0
0.461886 0.834856 0
0.5 0.85 0
0.089571 0.380533 0
0.0352885 0.371249 0
0.0542825 0.409284 0
0.918515 0.197991 0
0.964263 0.222229 0
0.954252 0.175762 0
0.630205 0.46162 0
0.680205 0.46162 0
0.65 0.5 0
0.0352885 0.321249 0
0 0.35 0
0.0487265 0.226631 0
0.0487265 0.276631 0
0 0.25 0
0.286541 0.951056 0
0.236541 0.951056 0
0.25 1 0
0.382169 0.964303 0
0.332168 0.964303 0
0.35 1 0
0.966209 0.0823575 0
1 0.05 0
0.876558 0.0357485 0
0.826558 0.0357485 0
0.85 0 0
0.710547 0.227526 0
0.663415 0.224132 0
0.686826 0.263198 0
0.964263 0.272229 0
1 0.25 0
0.40098 0.934133 0
0.418811 0.96983 0
0.45 1 0
0.326813 0.219104 0
0.290186 0.248584 0
0.336805 0.267084 0
0.243052 0.23639 0
0.253043 0.28437 0
0.224721 0.582616 0
0.220205 0.636726 0
0.252082 0.610769 0
0.92046 0.10812 0
0.954252 0.125762 0
0.66166 0.32475 0
0.662288 0.283458 0
0.639066 0.301096 0
0.949255 0.366653 0
0.949255 0.316653 0
1 0.35 0
0.291542 0.723459 0
0.27993 0.682005 0
0.259178 0.706333 0
0.394055 0.89916 0
0.430698 0.904686 0
0.531524 0.28422 0
0.492115 0.297124 0
0.522791 0.316692 0
0.040646 0.122453 0
0.040646 0.172453 0
0 0.15 0
1 0.15 0
0.151681 0.262718 0
0.192069 0.222774 0
0.137841 0.213317 0
0.558428 0.264284 0
0.600947 0.281797 0
0.597175 0.242291 0
0.508973 0.20957 0
0.551071 0.183459 0
0.505387 0.168251 0
0.118847 0.906605 0
0.088766 0.958276 0
0.3123 0.881198 0
0.329373 0.835836 0
0.290155 0.856751 0
0.18042 0.709353 0
0.223182 0.704287 0
0.204805 0.669945 0
0.114037 0.464054 0
0.157422 0.486991 0
0.15195 0.441504 0
0.279361 0.505346 0
0.248729 0.459236 0
0.225966 0.51055 0
0.423399 0.442555 0
0.448567 0.488847 0
0.892767 0.068106 0
0.65 0 0
0.901255 0.379406 0
0.952 0.412754 0
0.858877 0.146767 0
0.822019 0.189153 0
0.871644 0.19391 0
0.14825 0.528535 0
0.186162 0.505985 0
0.178931 0.775801 0
0.161815 0.746482 0
0.141948 0.778588 0
0.29813 0.591225 0
0.34111 0.580516 0
0.299577 0.545951 0
0.913519 0.288882 0
0.881657 0.240376 0
0.866648 0.2848 0
0.664882 0.143162 0
0.708469 0.158169 0
0.686215 0.112871 0
0.768308 0.293401 0
0.818722 0.278253 0
0.784372 0.251443 0
0.407693 0.254387 0
0.452622 0.232766 0
0.418361 0.215983 0
0.559238 0.352343 0
0.519829 0.365247 0
0.269689 0.146391 0
0.323596 0.167402 0
0.313091 0.113188 0
0.367897 0.0645775 0
0.396163 0.0349765 0
0.220028 0.321352 0
0.17678 0.307097 0
0.190899 0.356272 0
0.584604 0.203855 0
0.581018 0.162535 0
0.250656 0.860137 0
0.267729 0.814776 0
0.359821 0.770477 0
0.31886 0.781193 0
0.348189 0.800674 0
0.124404 0.679582 0
0.141706 0.637726 0
0.104067 0.642297 0
0.216622 0.899385 0
0.203213 0.085617 0
0.162735 0.126214 0
0.218707 0.132775 0
0.0893725 0.199083 0
0.129761 0.159139 0
0.121022 0.819921 0
0.103905 0.790602 0
0.193647 0.813034 0
0.159614 0.852282 0
0.194196 0.85741 0
0.650843 0.185696 0
0.628589 0.140398 0
0.504917 0.076007 0
0.50366 0.114367 0
0.548742 0.103779 0
0.378761 0.595487 0
0.380208 0.550214 0
0.466523 0.368506 0
0.783675 0.0347525 0
0.75 0 0
0.595056 0.120002 0
0.20263 0.384402 0
0.183224 0.431359 0
0.214741 0.417484 0
0.084015 0.29788 0
0.109114 0.342258 0
0.122552 0.29764 0
0.370334 0.82512 0
0.387646 0.864998 0
0.406461 0.829835 0
0.355164 0.351116 0
0.345461 0.389393 0
0.38124 0.369312 0
0.177444 0.641792 0
0.157107 0.604507 0
0.0286115 0.437949 0
0.0286115 0.487949 0
0 0.45 0
0.184917 0.578051 0
0.216794 0.552094 0
0.310754 0.412615 0
0.268135 0.41228 0
0.13984 0.408422 0
0.159382 0.370147 0
0.128108 0.380293 0
0.784378 0.167398 0
0.797145 0.21454 0
0.649424 0.382815 0
0.693196 0.390508 0
0.682209 0.350082 0
0.471401 0.267911 0
0.482069 0.229507 0
0.600319 0.323089 0
0.597356 0.371644 0
0.370215 0.185901 0
0.420304 0.369225 0
0.410601 0.407502 0
0.5 0.65 0
0.293615 0.645334 0
0.325979 0.66246 0
0.342624 0.703635 0
0.356309 0.666965 0
0.24951 0.782974 0
0.289009 0.779588 0
0.810542 0.362514 0
0.76432 0.338993 0
0.772204 0.381296 0
0.70942 0.286852 0
0.705431 0.332443 0
0.729969 0.312184 0
0.831184 0.106754 0
0.88081 0.111511 0
0.700748 0.430301 0
0.733534 0.397568 0
0.850584 0.326758 0
0.229212 0.186988 0
0.407496 0.52144 0
0.369845 0.506468 0
0.413594 0.760165 0
0.405497 0.719256 0
0.381051 0.749049 0
0.444574 0.794979 0
0.383872 0.640216 0
0.400517 0.681391 0
0.355233 0.0967005 0
0.42608 0.078274 0
0.379662 0.102076 0
0.055907 0.589708 0
0.0873405 0.613876 0
0.072862 0.718619 0
0.0918955 0.751177 0
0.105798 0.716711 0
0.234794 0.74574 0
0.213514 0.780928 0
0.143437 0.712141 0
0.72332 0.190623 0
0.744653 0.160332 0
0.788301 0.105758 0
0.748577 0.0986915 0
0.769527 0.134944 0
0.357928 0.894445 0
0.318709 0.915359 0
0.0802555 0.874244 0
0.121571 0.864297 0
0.32234 0.494638 0
0.349629 0.465863 0
0.384335 0.442641 0
0.336831 0.43081 0
0.608343 0.412069 0
0.527752 0.244716 0
0.858468 0.369061 0
0.627123 0.221367 0
0.382188 0.284319 0
0.345561 0.3138 0
0.437163 0.330315 0
0.746731 0.229689 0
0.149179 0.573985 0
0.720027 0.100984 0
0.810234 0.070501 0
0.861213 0.415162 0
0.827831 0.478851 0
0.85 0.5 0
0.082894 0.447232 0
0.0883665 0.492719 0
0.0578625 0.514002 0
0.300642 0.749391 0
0.351723 0.729569 0
0.321394 0.725064 0
0.416449 0.301103 0
0.462668 0.300384 0
0.837044 0.431259 0
</DataArray>
</Points>
<Cells>
<DataArray  type="UInt32"  Name="connectivity"  format="ascii">
1 138 139 
14 137 139 
45 137 138 
137 138 139 
4 141 142 
27 140 142 
65 140 141 
140 141 142 
0 144 145 
23 143 145 
43 143 144 
143 144 145 
4 141 147 
65 141 146 
105 146 147 
141 146 147 
5 149 150 
31 148 150 
47 148 149 
148 149 150 
2 152 153 
32 151 153 
44 151 152 
151 152 153 
2 152 155 
15 154 155 
44 152 154 
152 154 155 
15 154 157 
44 154 156 
101 156 157 
154 156 157 
6 159 160 
43 158 160 
93 158 159 
158 159 160 
15 162 163 
16 161 163 
71 161 162 
161 162 163 
6 159 165 
7 164 165 
93 159 164 
159 164 165 
[...]
<PointData  Vectors="u"> 
<DataArray  type="Float32"  Name="u"  NumberOfComponents="3" format="ascii">
 0.000000e+00 0.000000e+00 0.000000e+00
 0.000000e+00 0.000000e+00 0.000000e+00
 0.000000e+00 0.000000e+00 0.000000e+00
 0.000000e+00 0.000000e+00 0.000000e+00
 0.000000e+00 0.000000e+00 0.000000e+00
 0.000000e+00 0.000000e+00 0.000000e+00
 0.000000e+00 0.000000e+00 0.000000e+00
 0.000000e+00 0.000000e+00 0.000000e+00
 0.000000e+00 0.000000e+00 0.000000e+00
 0.000000e+00 0.000000e+00 0.000000e+00
 0.000000e+00 0.000000e+00 0.000000e+00
 0.000000e+00 0.000000e+00 0.000000e+00
 0.000000e+00 0.000000e+00 0.000000e+00
 0.000000e+00 0.000000e+00 0.000000e+00
 0.000000e+00 0.000000e+00 0.000000e+00
 0.000000e+00 0.000000e+00 0.000000e+00
 0.000000e+00 0.000000e+00 0.000000e+00
 0.000000e+00 0.000000e+00 0.000000e+00
 0.000000e+00 0.000000e+00 0.000000e+00
 0.000000e+00 0.000000e+00 0.000000e+00
 0.000000e+00 0.000000e+00 0.000000e+00
 0.000000e+00 0.000000e+00 0.000000e+00
 0.000000e+00 0.000000e+00 0.000000e+00
 0.000000e+00 0.000000e+00 0.000000e+00
 0.000000e+00 0.000000e+00 0.000000e+00
 0.000000e+00 0.000000e+00 0.000000e+00
 0.000000e+00 0.000000e+00 0.000000e+00
 0.000000e+00 0.000000e+00 0.000000e+00
 0.000000e+00 0.000000e+00 0.000000e+00
 0.000000e+00 0.000000e+00 0.000000e+00
 0.000000e+00 0.000000e+00 0.000000e+00
 0.000000e+00 0.000000e+00 0.000000e+00
 -5.093452e-05 1.639941e-01 0.000000e+00
 -1.429470e-04 1.405243e-01 0.000000e+00
 -1.220765e-04 1.389707e-01 0.000000e+00
 2.115678e-06 1.619420e-01 0.000000e+00
 -1.629510e-01 7.849602e-03 0.000000e+00
 -1.384334e-01 1.619640e-02 0.000000e+00
 -1.405220e-01 1.724019e-02 0.000000e+00
 -1.639358e-01 9.060898e-03 0.000000e+00
 -6.635842e-02 3.805292e-02 0.000000e+00
 -1.386610e-02 1.308126e-01 0.000000e+00
 -1.282142e-01 3.050987e-02 0.000000e+00
 -9.219693e-03 8.922754e-03 0.000000e+00
 -2.358224e-05 1.125752e-01 0.000000e+00
 -1.370556e-01 3.928384e-03 0.000000e+00
 -1.119838e-01 2.786638e-03 0.000000e+00
 -3.785835e-05 1.371368e-01 0.000000e+00
 -3.383057e-02 1.072512e-01 0.000000e+00
 -1.619242e-01 5.294156e-02 0.000000e+00
 -1.270676e-01 2.248303e-02 0.000000e+00
 -3.508303e-03 1.426318e-01 0.000000e+00
 -4.983474e-02 4.166871e-02 0.000000e+00
 -8.284105e-02 1.081159e-02 0.000000e+00
 -9.994912e-02 1.496854e-02 0.000000e+00
 -3.763362e-03 1.609380e-01 0.000000e+00
 -1.229116e-03 1.548170e-01 0.000000e+00
 -5.673164e-02 1.667460e-01 0.000000e+00
 -2.943258e-02 9.346224e-02 0.000000e+00
 -1.301721e-01 1.472038e-02 0.000000e+00
 -1.930103e-01 2.144991e-02 0.000000e+00
 -9.757894e-03 1.502024e-01 0.000000e+00
 -4.710634e-03 1.693375e-01 0.000000e+00
 -1.488547e-01 1.301503e-02 0.000000e+00
 -1.595422e-01 1.623276e-02 0.000000e+00
 -2.368241e-01 4.192659e-02 0.000000e+00
 -6.757106e-02 1.174066e-02 0.000000e+00
 -8.630658e-02 1.733525e-02 0.000000e+00
 -3.706758e-04 1.509082e-01 0.000000e+00
 -3.811467e-03 1.331359e-01 0.000000e+00
 -1.830739e-02 3.647608e-02 0.000000e+00
 -9.876488e-04 1.553569e-01 0.000000e+00
 -9.082259e-02 4.856466e-03 0.000000e+00
 -1.244027e-01 1.070549e-01 0.000000e+00
 -1.158233e-01 1.018894e-02 0.000000e+00
 -8.937059e-02 6.294554e-03 0.000000e+00
 -1.670362e-02 1.184466e-01 0.000000e+00
 -1.422214e-03 1.330351e-01 0.000000e+00
 -3.308268e-02 1.237370e-01 0.000000e+00
 -1.469374e-02 1.368638e-01 0.000000e+00
 -5.004065e-02 7.091412e-02 0.000000e+00
 -1.987670e-02 7.462459e-02 0.000000e+00
 -1.944512e-01 2.949438e-02 0.000000e+00
 -1.036414e-01 2.585890e-02 0.000000e+00
 -7.659864e-02 2.118658e-02 0.000000e+00
 -1.881375e-02 1.656922e-01 0.000000e+00
 -6.866725e-03 1.338210e-01 0.000000e+00
 -1.339954e-01 2.831287e-02 0.000000e+00
 -1.299823e-01 1.828310e-02 0.000000e+00
 -1.351086e-01 4.540547e-03 0.000000e+00
 -1.833583e-01 9.817186e-03 0.000000e+00
 -6.616722e-02 2.521404e-02 0.000000e+00
 -2.939144e-02 1.855348e-01 0.000000e+00
 -3.624473e-02 1.554093e-02 0.000000e+00
 -1.763753e-03 1.659766e-01 0.000000e+00
 -2.079422e-03 1.552326e-01 0.000000e+00
 -6.624808e-02 3.971077e-03 0.000000e+00
 -3.441125e-03 1.516378e-01 0.000000e+00
 -8.930391e-03 1.476578e-01 0.000000e+00
 -1.396493e-01 1.478590e-02 0.000000e+00
 -4.567433e-04 1.608889e-01 0.000000e+00
 -2.731457e-04 1.529368e-01 0.000000e+00
 -3.196641e-03 1.539025e-01 0.000000e+00
 -7.200503e-02 1.072188e-01 0.000000e+00
 -4.700693e-02 5.695276e-02 0.000000e+00
 -2.011894e-01 1.142702e-01 0.000000e+00
 -2.018855e-01 1.250533e-02 0.000000e+00
 -1.574151e-01 3.649286e-02 0.000000e+00
 -1.612959e-01 2.207176e-02 0.000000e+00
 -1.052202e-01 2.270882e-02 0.000000e+00
 -1.116643e-01 5.397181e-02 0.000000e+00
 -1.142737e-01 2.418260e-02 0.000000e+00
 -1.003018e-02 9.020614e-02 0.000000e+00
 -1.685098e-01 6.400504e-03 0.000000e+00
 -2.156162e-02 1.294286e-01 0.000000e+00
 -1.183801e-01 6.355822e-03 0.000000e+00
 -1.695862e-02 1.330526e-01 0.000000e+00
 -3.248734e-02 9.935477e-02 0.000000e+00
 -1.059752e-03 1.314576e-01 0.000000e+00
 -1.587630e-01 5.698901e-03 0.000000e+00
 -5.151183e-04 1.395709e-01 0.000000e+00
 -5.104864e-03 1.055408e-01 0.000000e+00
 -3.880409e-03 1.171316e-01 0.000000e+00
 -5.116954e-03 1.531910e-01 0.000000e+00
 -9.339694e-03 1.479974e-01 0.000000e+00
 -1.618963e-01 2.913720e-02 0.000000e+00
 -2.166430e-03 1.178029e-01 0.000000e+00
 -6.557574e-03 1.387810e-01 0.000000e+00
 -7.699330e-02 4.484471e-03 0.000000e+00
 -1.553443e-03 1.579594e-01 0.000000e+00
 -1.226482e-01 1.806339e-01 0.000000e+00
 -8.296592e-02 6.660300e-02 0.000000e+00
 -1.231353e-01 5.213131e-03 0.000000e+00
 -1.019171e-01 3.105385e-02 0.000000e+00
 -1.223562e-01 2.307095e-02 0.000000e+00
 -1.186157e-01 2.240877e-03 0.000000e+00
 -1.137997e-01 3.094036e-02 0.000000e+00
 -8.583411e-02 1.196316e-03 0.000000e+00
 -8.933556e-02 1.798600e-03 0.000000e+00
 0.000000e+00 0.000000e+00 0.000000e+00
 -1.858575e-01 1.648425e-02 0.000000e+00
 -2.116927e-01 5.321362e-02 0.000000e+00
 0.000000e+00 0.000000e+00 0.000000e+00
 -3.517583e-03 7.574427e-03 0.000000e+00
 -1.171210e-03 1.167231e-03 0.000000e+00
 0.000000e+00 0.000000e+00 0.000000e+00
 -2.351269e-01 7.857473e-02 0.000000e+00
 -2.112569e-01 1.320815e-01 0.000000e+00
 -6.039837e-06 8.524580e-02 0.000000e+00
 2.169319e-05 8.524337e-02 0.000000e+00
 0.000000e+00 0.000000e+00 0.000000e+00
 -4.392219e-05 1.487075e-01 0.000000e+00
 4.853042e-06 6.530490e-02 0.000000e+00
 -8.086294e-06 1.220025e-01 0.000000e+00
 -7.592133e-06 6.520326e-02 0.000000e+00
 0.000000e+00 0.000000e+00 0.000000e+00
 -1.086487e-04 1.369058e-01 0.000000e+00
 -6.314558e-05 1.022840e-01 0.000000e+00
 -2.175880e-02 1.347058e-02 0.000000e+00
 -1.755905e-02 5.152890e-03 0.000000e+00
 -7.382063e-03 3.273795e-03 0.000000e+00
 -3.334678e-04 1.059565e-01 0.000000e+00
 -1.816846e-04 1.065576e-01 0.000000e+00
 0.000000e+00 0.000000e+00 0.000000e+00
 -2.805004e-02 4.743584e-03 0.000000e+00
 0.000000e+00 0.000000e+00 0.000000e+00
 0.000000e+00 0.000000e+00 0.000000e+00
 -6.950409e-02 6.912738e-03 0.000000e+00
 -3.925527e-02 1.494555e-03 0.000000e+00
 -4.970795e-02 3.615379e-03 0.000000e+00
 -1.073044e-03 1.454331e-01 0.000000e+00
 -2.410890e-04 8.133949e-02 0.000000e+00
 -3.740906e-04 8.034106e-02 0.000000e+00
 0.000000e+00 0.000000e+00 0.000000e+00
 -2.946605e-02 2.733618e-02 0.000000e+00
 -1.478187e-02 2.141005e-02 0.000000e+00
 -4.237538e-02 4.743012e-03 0.000000e+00
 0.000000e+00 0.000000e+00 0.000000e+00
 -4.265650e-02 1.248734e-03 0.000000e+00
 0.000000e+00 0.000000e+00 0.000000e+00
 -6.544711e-02 2.253856e-03 0.000000e+00
 -6.142464e-02 2.141046e-03 0.000000e+00
 0.000000e+00 0.000000e+00 0.000000e+00
 -9.027916e-02 1.172104e-02 0.000000e+00
 -8.793797e-02 8.310958e-03 0.000000e+00
 -8.326895e-02 1.278486e-02 0.000000e+00
 -6.098020e-02 1.626004e-03 0.000000e+00
 -5.700157e-02 1.541644e-03 0.000000e+00
 0.000000e+00 0.000000e+00 0.000000e+00
 -1.047544e-01 7.391724e-03 0.000000e+00
 -8.536892e-02 3.264199e-03 0.000000e+00
 -1.388278e-01 4.038087e-03 0.000000e+00
 -1.042539e-01 1.751572e-03 0.000000e+00
 -6.566185e-02 8.105213e-04 0.000000e+00
 -2.910199e-03 1.382653e-01 0.000000e+00
 -4.965160e-04 7.238747e-02 0.000000e+00
 -9.623974e-04 1.065591e-01 0.000000e+00
 -7.214454e-04 7.041414e-02 0.000000e+00
 0.000000e+00 0.000000e+00 0.000000e+00
 -6.392594e-02 6.432689e-02 0.000000e+00
 -7.338292e-02 4.922328e-02 0.000000e+00
 -5.929408e-02 5.294763e-02 0.000000e+00
 -5.039223e-03 1.184293e-01 0.000000e+00
 -5.243640e-02 1.503563e-01 0.000000e+00
 0.000000e+00 0.000000e+00 0.000000e+00
 -8.635740e-03 1.682590e-01 0.000000e+00
 1.408248e-04 9.885600e-02 0.000000e+00
 -8.550780e-04 1.469497e-01 0.000000e+00
 9.403377e-05 8.587400e-02 0.000000e+00
 2.226719e-04 9.690410e-02 0.000000e+00
 2.114291e-05 8.554815e-02 0.000000e+00
 0.000000e+00 0.000000e+00 0.000000e+00
 -5.008724e-04 1.475517e-01 0.000000e+00
 -3.378195e-04 1.640738e-01 0.000000e+00
 -1.043142e-04 1.587923e-01 0.000000e+00
 -1.433307e-01 3.798795e-03 0.000000e+00
 -6.668262e-02 6.605835e-04 0.000000e+00
 -1.478870e-01 5.909776e-03 0.000000e+00
 -6.258872e-02 1.439893e-03 0.000000e+00
 -1.194377e-01 4.009152e-03 0.000000e+00
 -1.185508e-01 8.284412e-03 0.000000e+00
 -7.930677e-02 1.934232e-03 0.000000e+00
 -9.099284e-02 3.283831e-03 0.000000e+00
 -1.800901e-01 8.216107e-03 0.000000e+00
 -1.014656e-01 1.811945e-03 0.000000e+00
 -1.339471e-01 3.184235e-03 0.000000e+00
 -1.209201e-01 5.803873e-03 0.000000e+00
 -7.755829e-02 1.685527e-03 0.000000e+00
 0.000000e+00 0.000000e+00 0.000000e+00
 -1.067666e-01 2.211117e-03 0.000000e+00
 0.000000e+00 0.000000e+00 0.000000e+00
 -1.371483e-03 7.030188e-02 0.000000e+00
 -1.053397e-03 7.374119e-02 0.000000e+00
 0.000000e+00 0.000000e+00 0.000000e+00
 -8.584798e-03 1.363427e-01 0.000000e+00
 -7.038635e-03 1.429907e-01 0.000000e+00
 -1.222218e-02 1.442555e-01 0.000000e+00
 -4.752167e-05 9.950782e-02 0.000000e+00
 -8.590745e-05 9.992379e-02 0.000000e+00
 0.000000e+00 0.000000e+00 0.000000e+00
 -1.354922e-02 1.068548e-01 0.000000e+00
 -3.074434e-03 6.284535e-02 0.000000e+00
 -5.696200e-03 9.161903e-02 0.000000e+00
 -1.350915e-01 1.663781e-02 0.000000e+00
 -1.324328e-01 1.720775e-02 0.000000e+00
 -1.448881e-01 1.459440e-02 0.000000e+00
 -1.407630e-01 5.401413e-03 0.000000e+00
 -1.309230e-01 3.741865e-03 0.000000e+00
 0.000000e+00 0.000000e+00 0.000000e+00
 -3.389898e-03 5.532028e-02 0.000000e+00
 0.000000e+00 0.000000e+00 0.000000e+00
 -7.082295e-03 4.864448e-02 0.000000e+00
 -6.307493e-03 6.005954e-02 0.000000e+00
 0.000000e+00 0.000000e+00 0.000000e+00
 -4.989699e-04 1.354708e-01 0.000000e+00
 -5.375658e-04 1.322443e-01 0.000000e+00
 -1.475358e-04 1.313769e-01 0.000000e+00
 -1.101244e-04 1.634993e-01 0.000000e+00
 -2.413928e-04 1.502241e-01 0.000000e+00
 -6.486547e-05 1.565028e-01 0.000000e+00
 -1.547022e-01 6.011560e-03 0.000000e+00
 -1.233083e-01 3.415527e-03 0.000000e+00
 -8.994421e-02 1.311456e-03 0.000000e+00
 -8.659534e-02 1.421556e-03 0.000000e+00
 0.000000e+00 0.000000e+00 0.000000e+00
 -1.193335e-01 2.768959e-02 0.000000e+00
 -1.149254e-01 2.795758e-02 0.000000e+00
 -1.317714e-01 2.982932e-02 0.000000e+00
 -1.333547e-01 1.787557e-02 0.000000e+00
 -1.309148e-01 1.788844e-02 0.000000e+00
 -1.995959e-04 1.618252e-01 0.000000e+00
 -1.013530e-05 1.538489e-01 0.000000e+00
 2.857410e-05 1.205448e-01 0.000000e+00
 -6.993829e-02 2.094273e-02 0.000000e+00
 -6.348052e-02 3.001959e-02 0.000000e+00
 -7.244554e-02 2.801839e-02 0.000000e+00
 -5.690547e-02 3.871156e-02 0.000000e+00
 -5.576778e-02 4.459583e-02 0.000000e+00
 -2.380295e-02 1.249583e-01 0.000000e+00
 -1.600660e-02 1.301972e-01 0.000000e+00
 -2.179116e-02 1.289533e-01 0.000000e+00
 -1.574183e-01 8.364119e-03 0.000000e+00
 -1.604270e-01 1.020902e-02 0.000000e+00
 -1.777684e-01 2.914793e-02 0.000000e+00
 -1.445077e-01 3.064169e-02 0.000000e+00
 -1.586050e-01 3.151924e-02 0.000000e+00
 -1.665886e-01 1.246660e-02 0.000000e+00
 -1.481366e-01 1.641251e-02 0.000000e+00
 -1.593840e-01 1.412943e-02 0.000000e+00
 -8.064662e-03 1.394519e-01 0.000000e+00
 -1.203156e-02 1.367333e-01 0.000000e+00
 -9.871581e-03 1.323453e-01 0.000000e+00
 -5.033610e-04 1.634172e-01 0.000000e+00
 -1.668267e-04 1.446315e-01 0.000000e+00
 -1.345691e-01 3.495664e-02 0.000000e+00
 -1.354356e-01 3.967447e-02 0.000000e+00
 -1.628437e-01 4.308323e-02 0.000000e+00
 -5.937100e-03 1.842795e-02 0.000000e+00
 -5.894597e-03 3.059671e-02 0.000000e+00
 0.000000e+00 0.000000e+00 0.000000e+00
 -1.562378e-01 1.253119e-02 0.000000e+00
 -3.498461e-02 7.203223e-02 0.000000e+00
 -4.839752e-02 5.071104e-02 0.000000e+00
 -3.471796e-02 6.078601e-02 0.000000e+00
 -1.239679e-01 3.119496e-02 0.000000e+00
 -1.414328e-01 3.241939e-02 0.000000e+00
 -1.156065e-01 2.907634e-02 0.000000e+00
 -9.374606e-02 2.164500e-02 0.000000e+00
 -9.697179e-02 2.045841e-02 0.000000e+00
 -9.195777e-02 1.633104e-02 0.000000e+00
 -7.039720e-04 1.651255e-01 0.000000e+00
 -1.201265e-04 1.599569e-01 0.000000e+00
 -1.631738e-03 1.434250e-01 0.000000e+00
 -2.434076e-03 1.503713e-01 0.000000e+00
 -2.414529e-03 1.368250e-01 0.000000e+00
 -7.830383e-03 1.433953e-01 0.000000e+00
 -9.597950e-03 1.325840e-01 0.000000e+00
 -1.175074e-02 1.346635e-01 0.000000e+00
 -1.602200e-02 1.283804e-01 0.000000e+00
 -2.346697e-02 1.242268e-01 0.000000e+00
 -2.541970e-02 1.161575e-01 0.000000e+00
 -5.094204e-02 1.187294e-01 0.000000e+00
 -4.926957e-02 9.742532e-02 0.000000e+00
 -3.563849e-02 1.123012e-01 0.000000e+00
 -1.725145e-01 1.558016e-01 0.000000e+00
 -1.409639e-01 1.790028e-01 0.000000e+00
 -1.364919e-01 4.017734e-03 0.000000e+00
 0.000000e+00 0.000000e+00 0.000000e+00
 -1.744575e-01 1.141533e-02 0.000000e+00
 -1.618691e-01 7.409109e-03 0.000000e+00
 -1.448940e-01 1.376320e-02 0.000000e+00
 -1.293485e-01 1.995252e-02 0.000000e+00
 -1.327392e-01 1.806592e-02 0.000000e+00
 -1.850124e-02 1.348722e-01 0.000000e+00
 -2.758962e-02 1.192088e-01 0.000000e+00
 -4.681765e-03 1.460181e-01 0.000000e+00
 -5.309295e-03 1.511989e-01 0.000000e+00
 -3.558966e-03 1.585365e-01 0.000000e+00
 -2.896793e-02 1.434227e-01 0.000000e+00
 -3.368382e-02 1.692467e-01 0.000000e+00
 -4.346889e-02 1.392021e-01 0.000000e+00
 -1.392401e-01 1.837980e-02 0.000000e+00
 -1.287918e-01 2.005664e-02 0.000000e+00
 -1.392523e-01 2.067603e-02 0.000000e+00
 -1.172506e-01 1.769589e-02 0.000000e+00
 -1.212686e-01 1.981403e-02 0.000000e+00
 -1.241356e-01 1.269617e-02 0.000000e+00
 -1.477348e-01 2.595690e-02 0.000000e+00
 -1.380681e-01 2.365834e-02 0.000000e+00
 -1.285957e-01 2.577155e-02 0.000000e+00
 -8.649212e-02 2.515717e-02 0.000000e+00
 -8.989853e-02 2.259387e-02 0.000000e+00
 -8.160741e-02 1.833695e-02 0.000000e+00
 -2.056983e-01 4.212159e-02 0.000000e+00
 -2.114675e-01 5.692587e-02 0.000000e+00
 -7.133679e-02 1.970968e-02 0.000000e+00
 -7.508935e-02 1.599281e-02 0.000000e+00
 -7.817979e-02 1.127558e-02 0.000000e+00
 -7.189117e-02 4.217380e-03 0.000000e+00
 -5.074877e-02 1.567668e-03 0.000000e+00
 -4.758546e-02 6.265357e-02 0.000000e+00
 -3.825011e-02 7.518872e-02 0.000000e+00
 -3.934017e-02 8.147196e-02 0.000000e+00
 -1.026050e-01 2.437668e-02 0.000000e+00
 -1.020987e-01 1.888886e-02 0.000000e+00
 -2.530338e-03 1.314713e-01 0.000000e+00
 -3.889237e-03 1.327396e-01 0.000000e+00
 -3.200011e-03 1.629139e-01 0.000000e+00
 -4.258590e-03 1.475645e-01 0.000000e+00
 -2.841687e-03 1.581340e-01 0.000000e+00
 -6.160628e-03 1.571759e-01 0.000000e+00
 -9.670059e-03 1.506713e-01 0.000000e+00
 -6.051947e-03 1.539140e-01 0.000000e+00
 -1.499447e-03 1.356575e-01 0.000000e+00
 -5.384279e-02 1.432819e-02 0.000000e+00
 -4.697669e-02 2.976476e-02 0.000000e+00
 -6.247100e-02 2.438293e-02 0.000000e+00
 -1.968664e-02 5.637033e-02 0.000000e+00
 -3.537428e-02 4.391319e-02 0.000000e+00
 -2.023839e-03 1.636516e-01 0.000000e+00
 -2.075444e-03 1.621875e-01 0.000000e+00
 -3.668692e-03 1.416281e-01 0.000000e+00
 -2.108896e-03 1.544946e-01 0.000000e+00
 -2.392015e-03 1.419758e-01 0.000000e+00
 -1.098074e-01 2.374984e-02 0.000000e+00
 -1.119851e-01 1.695310e-02 0.000000e+00
 -9.085538e-02 5.632100e-03 0.000000e+00
 -9.693346e-02 1.017771e-02 0.000000e+00
 -1.023855e-01 9.834542e-03 0.000000e+00
 -2.359747e-02 1.853259e-01 0.000000e+00
 -5.007963e-02 1.918840e-01 0.000000e+00
 -1.892330e-01 7.778105e-02 0.000000e+00
 -8.165913e-02 1.507242e-03 0.000000e+00
 0.000000e+00 0.000000e+00 0.000000e+00
 -1.090065e-01 1.317370e-02 0.000000e+00
 -4.097459e-02 8.440100e-02 0.000000e+00
 -3.345715e-02 1.029496e-01 0.000000e+00
 -4.268560e-02 8.955601e-02 0.000000e+00
 -1.441319e-02 8.471461e-02 0.000000e+00
 -1.958233e-02 9.992015e-02 0.000000e+00
 -2.506486e-02 8.734527e-02 0.000000e+00
 -1.772715e-03 1.636389e-01 0.000000e+00
 -9.041586e-04 1.643590e-01 0.000000e+00
 -9.033248e-04 1.612868e-01 0.000000e+00
 -9.866616e-02 6.095711e-02 0.000000e+00
 -1.014766e-01 8.363748e-02 0.000000e+00
 -1.225817e-01 7.835442e-02 0.000000e+00
 -1.242075e-02 1.403812e-01 0.000000e+00
 -1.355985e-02 1.431263e-01 0.000000e+00
 -1.845459e-03 6.112468e-02 0.000000e+00
 -1.554275e-03 6.584743e-02 0.000000e+00
 0.000000e+00 0.000000e+00 0.000000e+00
 -1.942382e-02 1.316219e-01 0.000000e+00
 -2.745694e-02 1.212022e-01 0.000000e+00
 -8.088405e-02 8.753373e-02 0.000000e+00
 -6.036691e-02 8.060792e-02 0.000000e+00
 -2.451675e-02 1.119625e-01 0.000000e+00
 -3.106072e-02 9.674780e-02 0.000000e+00
 -2.286585e-02 1.076882e-01 0.000000e+00
 -1.300465e-01 1.910266e-02 0.000000e+00
 -1.242642e-01 2.339356e-02 0.000000e+00
 -2.164062e-01 2.253579e-02 0.000000e+00
 -2.087260e-01 1.747709e-02 0.000000e+00
 -1.949763e-01 2.514377e-02 0.000000e+00
 -1.085181e-01 3.108669e-02 0.000000e+00
 -9.428814e-02 2.337018e-02 0.000000e+00
 -1.787878e-01 3.422020e-02 0.000000e+00
 -2.199947e-01 3.230727e-02 0.000000e+00
 -7.704446e-02 1.495549e-02 0.000000e+00
 -1.540527e-01 8.335062e-02 0.000000e+00
 -1.616818e-01 1.176599e-01 0.000000e+00
 0.000000e+00 0.000000e+00 0.000000e+00
 -1.695568e-02 1.421187e-01 0.000000e+00
 -1.291640e-02 1.561541e-01 0.000000e+00
 -7.227326e-03 1.606177e-01 0.000000e+00
 -9.696705e-03 1.687355e-01 0.000000e+00
 -5.206932e-03 1.315921e-01 0.000000e+00
 -5.011287e-03 1.375091e-01 0.000000e+00
 -1.823793e-01 1.659961e-02 0.000000e+00
 -1.768686e-01 2.210071e-02 0.000000e+00
 -1.933761e-01 1.536852e-02 0.000000e+00
 -1.461039e-01 2.902805e-02 0.000000e+00
 -1.796235e-01 2.599867e-02 0.000000e+00
 -1.625066e-01 2.665965e-02 0.000000e+00
 -1.465157e-01 9.277512e-03 0.000000e+00
 -1.530918e-01 8.981989e-03 0.000000e+00
 -1.852787e-01 8.850313e-03 0.000000e+00
 -2.001324e-01 1.403361e-02 0.000000e+00
 -1.604942e-01 1.886413e-02 0.000000e+00
 -6.013640e-02 3.361003e-02 0.000000e+00
 -7.722231e-02 1.994918e-01 0.000000e+00
 -8.434530e-02 1.789103e-01 0.000000e+00
 -1.236017e-03 1.599196e-01 0.000000e+00
 -2.077891e-03 1.657035e-01 0.000000e+00
 -2.778629e-03 1.676619e-01 0.000000e+00
 -3.082841e-04 1.297118e-01 0.000000e+00
 -1.000335e-02 1.778955e-01 0.000000e+00
 -3.634166e-03 1.704675e-01 0.000000e+00
 -8.114189e-02 7.599224e-03 0.000000e+00
 -8.347274e-02 5.198147e-03 0.000000e+00
 -8.431725e-02 7.601857e-03 0.000000e+00
 -2.945842e-03 1.180389e-01 0.000000e+00
 -5.452995e-03 1.461132e-01 0.000000e+00
 -2.009027e-03 1.443911e-01 0.000000e+00
 -2.334996e-03 1.573944e-01 0.000000e+00
 -3.750660e-03 1.594040e-01 0.000000e+00
 -7.029636e-03 1.319850e-01 0.000000e+00
 -5.099743e-03 1.356333e-01 0.000000e+00
 -5.935083e-03 1.554234e-01 0.000000e+00
 -1.184983e-01 2.390733e-02 0.000000e+00
 -1.262075e-01 1.941485e-02 0.000000e+00
 -1.402547e-01 1.005613e-02 0.000000e+00
 -1.333281e-01 9.711490e-03 0.000000e+00
 -1.353112e-01 1.496217e-02 0.000000e+00
 -9.285980e-04 1.594847e-01 0.000000e+00
 -9.410844e-04 1.454836e-01 0.000000e+00
 -5.765751e-04 1.544007e-01 0.000000e+00
 -1.299446e-03 1.644291e-01 0.000000e+00
 -7.015780e-02 1.384888e-01 0.000000e+00
 -9.697567e-02 1.420111e-01 0.000000e+00
 -1.333699e-01 1.445614e-01 0.000000e+00
 -9.652560e-02 1.098208e-01 0.000000e+00
 -2.234365e-01 2.204268e-02 0.000000e+00
 -1.077871e-01 2.784121e-02 0.000000e+00
 -1.778782e-01 1.373197e-02 0.000000e+00
 -1.108309e-01 2.746560e-02 0.000000e+00