<?xml version="1.0"?>
<VTKFile type="UnstructuredGrid"  version="0.1"  >
<UnstructuredGrid>
<Piece  NumberOfPoints="505" NumberOfCells="928">
<Points>
<DataArray  type="Float32"  NumberOfComponents="3"  format="ascii">
0 0 0
1 0 0
0 1 0
1 0.5 0
0.5 0.5 0
0.5 1 0
0.1 0 0
0.2 0 0
0.3 0 0
0.4 0 0
0.5 0 0
0.6 0 0
0.7 0 0
0.8 0 0
0.9 0 0
0 0.9 0
0 0.8 0
0 0.7 0
0 0.6 0
0 0.5 0
0 0.4 0
0 0.3 0
0 0.2 0
0 0.1 0
0.9 0.5 0
0.8 0.5 0
0.7 0.5 0
0.6 0.5 0
0.5 0.6 0
0.5 0.7 0
0.5 0.8 0
0.5 0.9 0
0.1 1 0
0.2 1 0
0.3 1 0
0.4 1 0
1 0.1 0
1 0.2 0
1 0.3 0
1 0.4 0
0.300178 0.296564 0
0.247566 0.664879 0
0.639694 0.259804 0
0.06564 0.06472 0
0.04439 0.954144 0
0.932418 0.064715 0
0.951013 0.456419 0
0.437622 0.939659 0
0.195334 0.464441 0
0.483382 0.329596 0
0.834786 0.236295 0
0.307228 0.81139 0
0.178229 0.173372 0
0.366998 0.134199 0
0.547485 0.14214 0
0.124832 0.74927 0
0.160163 0.896658 0
0.342556 0.535243 0
0.147651 0.342018 0
0.729803 0.127878 0
0.725981 0.357775 0
0.121369 0.600441 0
0.372954 0.70814 0
0.908503 0.151525 0
0.89851 0.333305 0
0.556275 0.400898 0
0.259184 0.092178 0
0.46329 0.194362 0
0.423773 0.869712 0
0.22823 0.818162 0
0.081292 0.144905 0
0.082979 0.831935 0
0.549999 0.065419 0
0.371537 0.407588 0
0.642628 0.097865 0
0.459835 0.086595 0
0.108565 0.418567 0
0.273082 0.902112 0
0.256598 0.556659 0
0.11951 0.509541 0
0.234147 0.370527 0
0.097453 0.253261 0
0.638438 0.342389 0
0.554656 0.224779 0
0.373432 0.237603 0
0.339663 0.62579 0
0.27079 0.747786 0
0.733958 0.266592 0
0.928527 0.244458 0
0.853116 0.071497 0
0.818426 0.404817 0
0.280194 0.200604 0
0.417859 0.565185 0
0.147241 0.079056 0
0.389149 0.789957 0
0.42808 0.654642 0
0.343469 0.059202 0
0.086765 0.684153 0
0.162043 0.675011 0
0.809252 0.14201 0
0.364337 0.928607 0
0.077532 0.916553 0
0.159064 0.807906 0
0.302124 0.454032 0
0.205909 0.272176 0
0.449664 0.407415 0
0.66041 0.423241 0
0.562201 0.303789 0
0.802658 0.320211 0
0.614551 0.182931 0
0.390944 0.331035 0
0.687136 0.18846 0
0.070577 0.342498 0
0.741087 0.437361 0
0.176989 0.547528 0
0.710251 0.07409 0
0.192845 0.608574 0
0.171114 0.398277 0
0.058959 0.753084 0
0.904 0.425508 0
0.438039 0.730373 0
0.057223 0.475897 0
0.058502 0.552106 0
0.330493 0.750997 0
0.312295 0.699131 0
0.684882 0.307111 0
0.053312 0.627311 0
0.198798 0.743695 0
0.392326 0.069953 0
0.351519 0.860283 0
0.397134 0.477694 0
0.319385 0.371198 0
0.767351 0.069505 0
0.441954 0.271171 0
0.759504 0.192785 0
0.855661 0.457701 0
0.500847 0.264652 0
0.916209 0.0323575 0
0.966209 0.0323575 0
0.95 0 0
0.578137 0.450449 0
0.528137 0.450449 0
0.55 0.5 0
0.03282 0.08236 0
0.03282 0.03236 0
0 0.05 0
0.502969 0.404157 0
0.474832 0.453708 0
0.468811 0.91983 0
0.468811 0.96983 0
0.5 0.95 0
0.072195 0.977072 0
0.022195 0.977072 0
0.05 1 0
0.022195 0.927072 0
0 0.95 0
0.060961 0.935348 0
0.038766 0.908276 0
0.106441 0.071888 0
0.123621 0.039528 0
0.08282 0.03236 0
0.0414895 0.815967 0
0.0414895 0.865968 0
0 0.85 0
0.173621 0.039528 0
0.15 0 0
0.05 0 0
0.301327 0.07569 0
0.321735 0.029601 0
0.279592 0.046089 0
0.070969 0.792509 0
0.0294795 0.776542 0
0.0294795 0.726542 0
0 0.75 0
0.114267 0.111981 0
0.073466 0.104813 0
0.229592 0.046089 0
0.25 0 0
0.371735 0.029601 0
0.35 0 0
0.479917 0.0432975 0
0.429918 0.0432975 0
0.45 0 0
0.461562 0.140479 0
0.413416 0.110397 0
0.415144 0.16428 0
0.574999 0.0327095 0
0.525 0.0327095 0
0.55 0 0
0.596313 0.081642 0
0.621314 0.0489325 0
0.927507 0.440964 0
0.902 0.462754 0
0.925507 0.47821 0
0.0700385 0.655732 0
0.026656 0.663655 0
0.0433825 0.692076 0
0.026656 0.613655 0
0 0.65 0
0.276766 0.370862 0
0.309781 0.333881 0
0.267162 0.333545 0
0.458929 0.582593 0
0.458929 0.532593 0
0.5 0.55 0
0.422969 0.609913 0
0.46404 0.627321 0
0.43306 0.692508 0
0.46902 0.715186 0
0.46404 0.677321 0
0.46902 0.765186 0
0.5 0.75 0
0.180082 0.948329 0
0.130082 0.948329 0
0.15 1 0
0.87983 0.441605 0
0.87783 0.478851 0
0.975507 0.42821 0
0.975507 0.47821 0
1 0.45 0
0.676439 0.0859775 0
0.705125 0.037045 0
0.671314 0.0489325 0
0.779756 0.421089 0
0.770544 0.46868 0
0.809213 0.452408 0
0.738801 0.0717975 0
0.733675 0.0347525 0
0.95 0.5 0
0.720544 0.46868 0
0.75 0.5 0
0.029251 0.526053 0
0.029251 0.576053 0
0 0.55 0
0.089006 0.530824 0
0.0899355 0.576273 0
0.12044 0.554991 0
0.461886 0.884856 0
0.461886 0.834856 0
0.5 0.85 0
0.089571 0.380533 0
0.0352885 0.371249 0
0.0542825 0.409284 0
0.918515 0.197991 0
0.964263 0.222229 0
0.954252 0.175762 0
0.630205 0.46162 0
0.680205 0.46162 0
0.65 0.5 0
0.0352885 0.321249 0
0 0.35 0
0.0487265 0.226631 0
0.0487265 0.276631 0
0 0.25 0
0.286541 0.951056 0
0.236541 0.951056 0
0.25 1 0
0.382169 0.964303 0
0.332168 0.964303 0
0.35 1 0
0.966209 0.0823575 0
1 0.05 0
0.876558 0.0357485 0
0.826558 0.0357485 0
0.85 0 0
0.710547 0.227526 0
0.663415 0.224132 0
0.686826 0.263198 0
0.964263 0.272229 0
1 0.25 0
0.40098 0.934133 0
0.418811 0.96983 0
0.45 1 0
0.326813 0.219104 0
0.290186 0.248584 0
0.336805 0.267084 0
0.243052 0.23639 0
0.253043 0.28437 0
0.224721 0.582616 0
0.220205 0.636726 0
0.252082 0.610769 0
0.92046 0.10812 0
0.954252 0.125762 0
0.66166 0.32475 0
0.662288 0.283458 0
0.639066 0.301096 0
0.949255 0.366653 0
0.949255 0.316653 0
1 0.35 0
0.291542 0.723459 0
0.27993 0.682005 0
0.259178 0.706333 0
0.394055 0.89916 0
0.430698 0.904686 0
0.531524 0.28422 0
0.492115 0.297124 0
0.522791 0.316692 0
0.040646 0.122453 0
0.040646 0.172453 0
0 0.15 0
1 0.15 0
0.151681 0.262718 0
0.192069 0.222774 0
0.137841 0.213317 0
0.558428 0.264284 0
0.600947 0.281797 0
0.597175 0.242291 0
0.508973 0.20957 0
0.551071 0.183459 0
0.505387 0.168251 0
0.118847 0.906605 0
0.088766 0.958276 0
0.3123 0.881198 0
0.329373 0.835836 0
0.290155 0.856751 0
0.18042 0.709353 0
0.223182 0.704287 0
0.204805 0.669945 0
0.114037 0.464054 0
0.157422 0.486991 0
0.15195 0.441504 0
0.279361 0.505346 0
0.248729 0.459236 0
0.225966 0.51055 0
0.423399 0.442555 0
0.448567 0.488847 0
0.892767 0.068106 0
0.65 0 0
0.901255 0.379406 0
0.952 0.412754 0
0.858877 0.146767 0
0.822019 0.189153 0
0.871644 0.19391 0
0.14825 0.528535 0
0.186162 0.505985 0
0.178931 0.775801 0
0.161815 0.746482 0
0.141948 0.778588 0
0.29813 0.591225 0
0.34111 0.580516 0
0.299577 0.545951 0
0.913519 0.288882 0
0.881657 0.240376 0
0.866648 0.2848 0
0.664882 0.143162 0
0.708469 0.158169 0
0.686215 0.112871 0
0.768308 0.293401 0
0.818722 0.278253 0
0.784372 0.251443 0
0.407693 0.254387 0
0.452622 0.232766 0
0.418361 0.215983 0
0.559238 0.352343 0
0.519829 0.365247 0
0.269689 0.146391 0
0.323596 0.167402 0
0.313091 0.113188 0
0.367897 0.0645775 0
0.396163 0.0349765 0
0.220028 0.321352 0
0.17678 0.307097 0
0.190899 0.356272 0
0.584604 0.203855 0
0.581018 0.162535 0
0.250656 0.860137 0
0.267729 0.814776 0
0.359821 0.770477 0
0.31886 0.781193 0
0.348189 0.800674 0
0.124404 0.679582 0
0.141706 0.637726 0
0.104067 0.642297 0
0.216622 0.899385 0
0.203213 0.085617 0
0.162735 0.126214 0
0.218707 0.132775 0
0.0893725 0.199083 0
0.129761 0.159139 0
0.121022 0.819921 0
0.103905 0.790602 0
0.193647 0.813034 0
0.159614 0.852282 0
0.194196 0.85741 0
0.650843 0.185696 0
0.628589 0.140398 0
0.504917 0.076007 0
0.50366 0.114367 0
0.548742 0.103779 0
0.378761 0.595487 0
0.380208 0.550214 0
0.466523 0.368506 0
0.783675 0.0347525 0
0.75 0 0
0.595056 0.120002 0
0.20263 0.384402 0
0.183224 0.431359 0
0.214741 0.417484 0
0.084015 0.29788 0
0.109114 0.342258 0
0.122552 0.29764 0
0.370334 0.82512 0
0.387646 0.864998 0
0.406461 0.829835 0
0.355164 0.351116 0
0.345461 0.389393 0
0.38124 0.369312 0
0.177444 0.641792 0
0.157107 0.604507 0
0.0286115 0.437949 0
0.0286115 0.487949 0
0 0.45 0
0.184917 0.578051 0
0.216794 0.552094 0
0.310754 0.412615 0
0.268135 0.41228 0
0.13984 0.408422 0
0.159382 0.370147 0
0.128108 0.380293 0
0.784378 0.167398 0
0.797145 0.21454 0
0.649424 0.382815 0
0.693196 0.390508 0
0.682209 0.350082 0
0.471401 0.267911 0
0.482069 0.229507 0
0.600319 0.323089 0
0.597356 0.371644 0
0.370215 0.185901 0
0.420304 0.369225 0
0.410601 0.407502 0
0.5 0.65 0
0.293615 0.645334 0
0.325979 0.66246 0
0.342624 0.703635 0
0.356309 0.666965 0
0.24951 0.782974 0
0.289009 0.779588 0
0.810542 0.362514 0
0.76432 0.338993 0
0.772204 0.381296 0
0.70942 0.286852 0
0.705431 0.332443 0
0.729969 0.312184 0
0.831184 0.106754 0
0.88081 0.111511 0
0.700748 0.430301 0
0.733534 0.397568 0
0.850584 0.326758 0
0.229212 0.186988 0
0.407496 0.52144 0
0.369845 0.506468 0
0.413594 0.760165 0
0.405497 0.719256 0
0.381051 0.749049 0
0.444574 0.794979 0
0.383872 0.640216 0
0.400517 0.681391 0
0.355233 0.0967005 0
0.42608 0.078274 0
0.379662 0.102076 0
0.055907 0.589708 0
0.0873405 0.613876 0
0.072862 0.718619 0
0.0918955 0.751177 0
0.105798 0.716711 0
0.234794 0.74574 0
0.213514 0.780928 0
0.143437 0.712141 0
0.72332 0.190623 0
0.744653 0.160332 0
0.788301 0.105758 0
0.748577 0.0986915 0
0.769527 0.134944 0
0.357928 0.894445 0
0.318709 0.915359 0
0.0802555 0.874244 0
0.121571 0.864297 0
0.32234 0.494638 0
0.349629 0.465863 0
0.384335 0.442641 0
0.336831 0.43081 0
0.608343 0.412069 0
0.527752 0.244716 0
0.858468 0.369061 0
0.627123 0.221367 0
0.382188 0.284319 0
0.345561 0.3138 0
0.437163 0.330315 0
0.746731 0.229689 0
0.149179 0.573985 0
0.720027 0.100984 0
0.810234 0.070501 0
0.861213 0.415162 0
0.827831 0.478851 0
0.85 0.5 0
0.082894 0.447232 0
0.0883665 0.492719 0
0.0578625 0.514002 0
0.300642 0.749391 0
0.351723 0.729569 0
0.321394 0.725064 0
0.416449 0.301103 0
0.462668 0.300384 0
0.837044 0.431259 0
</DataArray>
</Points>
<Cells>
<DataArray  type="UInt32"  Name="connectivity"  format="ascii">
1 138 139 
14 137 139 
45 137 138 
137 138 139 
4 141 142 
27 140 142 
65 140 141 
140 141 142 
0 144 145 
23 143 145 
43 143 144 
143 144 145 
4 141 147 
65 141 146 
105 146 147 
141 146 147 
5 149 150 
31 148 150 
47 148 149 
148 149 150 
2 152 153 
32 151 153 
44 151 152 
151 152 153 
2 152 155 
15 154 155 
44 152 154 
152 154 155 
15 154 157 
44 154 156 
101 156 157 
154 156 157 
6 159 160 
43 158 160 
93 158 159 
158 159 160 
15 162 163 
16 161 163 
71 161 162 
161 162 163 
6 159 165 
7 164 165 
93 159 164 
159 164 165 
[...]
<PointData  Vectors="u"> 
<DataArray  type="Float32"  Name="u"  NumberOfComponents="3" format="ascii">
 0.000000e+00 0.000000e+00 0.000000e+00
 0.000000e+00 0.000000e+00 0.000000e+00
 0.000000e+00 0.000000e+00 0.000000e+00
 0.000000e+00 0.000000e+00 0.000000e+00
 0.000000e+00 0.000000e+00 0.000000e+00
 0.000000e+00 0.000000e+00 0.000000e+00
 0.000000e+00 0.000000e+00 0.000000e+00
 0.000000e+00 0.000000e+00 0.000000e+00
 0.000000e+00 0.000000e+00 0.000000e+00
 0.000000e+00 0.000000e+00 0.000000e+00
 0.000000e+00 0.000000e+00 0.000000e+00
 0.000000e+00 0.000000e+00 0.000000e+00
 0.000000e+00 0.000000e+00 0.000000e+00
 0.000000e+00 0.000000e+00 0.000000e+00
 0.000000e+00 0.000000e+00 0.000000e+00
 0.000000e+00 0.000000e+00 0.000000e+00
 0.000000e+00 0.000000e+00 0.000000e+00
 0.000000e+00 0.000000e+00 0.000000e+00
 0.000000e+00 0.000000e+00 0.000000e+00
 0.000000e+00 0.000000e+00 0.000000e+00
 0.000000e+00 0.000000e+00 0.000000e+00
 0.000000e+00 0.000000e+00 0.000000e+00
 0.000000e+00 0.000000e+00 0.000000e+00
 0.000000e+00 0.000000e+00 0.000000e+00
 0.000000e+00 0.000000e+00 0.000000e+00
 0.000000e+00 0.000000e+00 0.000000e+00
 0.000000e+00 0.000000e+00 0.000000e+00
 0.000000e+00 0.000000e+00 0.000000e+00
 0.000000e+00 0.000000e+00 0.000000e+00
 0.000000e+00 0.000000e+00 0.000000e+00
 0.000000e+00 0.000000e+00 0.000000e+00
 0.000000e+00 0.000000e+00 0.000000e+00
 1.371014e-03 -2.228312e-01 0.000000e+00
 2.698534e-03 -3.676336e-01 0.000000e+00
 2.823649e-03 -3.794386e-01 0.000000e+00
 1.579935e-03 -2.442740e-01 0.000000e+00
 2.477297e-01 5.730156e-03 0.000000e+00
 3.821828e-01 1.298213e-02 0.000000e+00
 3.666378e-01 1.477780e-02 0.000000e+00
 2.177513e-01 7.695679e-03 0.000000e+00
 1.693913e-01 -2.194980e-01 0.000000e+00
 3.113169e-02 -3.824745e-01 0.000000e+00
 4.025720e-01 -2.155004e-02 0.000000e+00
 -1.692390e-03 1.353283e-03 0.000000e+00
 4.452368e-04 -8.766613e-02 0.000000e+00
 1.639792e-01 3.918469e-03 0.000000e+00
 7.924340e-02 2.792685e-03 0.000000e+00
 8.439715e-04 -1.510876e-01 0.000000e+00
 6.373605e-02 -2.849937e-01 0.000000e+00
 3.305554e-01 -1.849514e-01 0.000000e+00
 3.993735e-01 2.585026e-02 0.000000e+00
 9.355885e-03 -3.774883e-01 0.000000e+00
 5.535585e-02 -7.147837e-02 0.000000e+00
 1.924445e-01 -6.571147e-02 0.000000e+00
 3.228183e-01 -3.231169e-02 0.000000e+00
 7.805796e-03 -2.628599e-01 0.000000e+00
 3.303182e-03 -3.261493e-01 0.000000e+00
 8.652511e-02 -3.741944e-01 0.000000e+00
 4.455579e-02 -1.587144e-01 0.000000e+00
 3.320892e-01 1.060808e-02 0.000000e+00
 2.714142e-01 2.147117e-02 0.000000e+00
 1.785140e-02 -2.318463e-01 0.000000e+00
 1.659102e-02 -3.142652e-01 0.000000e+00
 3.464639e-01 1.447066e-02 0.000000e+00
 3.264353e-01 2.188341e-02 0.000000e+00
 2.096217e-01 -6.865917e-02 0.000000e+00
 7.955187e-02 -3.349463e-02 0.000000e+00
 3.094551e-01 -9.636054e-02 0.000000e+00
 1.716109e-03 -1.899593e-01 0.000000e+00
 8.792661e-03 -3.818775e-01 0.000000e+00
 7.338370e-03 -1.329127e-02 0.000000e+00
 2.102968e-03 -1.802007e-01 0.000000e+00
 1.860861e-01 -5.836022e-03 0.000000e+00
 1.993397e-01 -3.250111e-01 0.000000e+00
 2.755751e-01 3.665833e-05 0.000000e+00
 1.992812e-01 -2.277216e-02 0.000000e+00
 2.345173e-02 -1.450768e-01 0.000000e+00
 4.318051e-03 -3.887861e-01 0.000000e+00
 6.323139e-02 -3.701536e-01 0.000000e+00
 2.405043e-02 -2.004291e-01 0.000000e+00
 1.042856e-01 -2.563362e-01 0.000000e+00
 1.714507e-02 -5.991310e-02 0.000000e+00
 3.124064e-01 -1.485394e-02 0.000000e+00
 3.820306e-01 -6.868059e-02 0.000000e+00
 2.397621e-01 -1.617341e-01 0.000000e+00
 4.153168e-02 -3.675195e-01 0.000000e+00
 1.708336e-02 -3.892002e-01 0.000000e+00
 3.955783e-01 1.834975e-02 0.000000e+00
 3.929358e-01 2.007632e-02 0.000000e+00
 1.917938e-01 6.244719e-03 0.000000e+00
 1.791554e-01 1.739236e-02 0.000000e+00
 1.422042e-01 -1.238650e-01 0.000000e+00
 4.301632e-02 -2.704554e-01 0.000000e+00
 1.537691e-02 -1.319538e-02 0.000000e+00
 6.521101e-03 -2.750899e-01 0.000000e+00
 1.235083e-02 -2.047850e-01 0.000000e+00
 9.350990e-02 -1.573831e-02 0.000000e+00
 6.496534e-03 -1.763562e-01 0.000000e+00
 1.868807e-02 -3.125794e-01 0.000000e+00
 3.457194e-01 1.618544e-02 0.000000e+00
 2.549497e-03 -3.136391e-01 0.000000e+00
 1.061272e-03 -1.695005e-01 0.000000e+00
 6.878050e-03 -3.215257e-01 0.000000e+00
 1.260470e-01 -3.497860e-01 0.000000e+00
 8.474621e-02 -1.591253e-01 0.000000e+00
 2.410695e-01 -2.607128e-01 0.000000e+00
 1.052754e-01 7.709575e-03 0.000000e+00
 3.717816e-01 -8.862648e-02 0.000000e+00
 3.385443e-01 2.874657e-02 0.000000e+00
 3.840295e-01 -2.214902e-02 0.000000e+00
 2.556396e-01 -2.529997e-01 0.000000e+00
 3.974637e-01 3.160816e-03 0.000000e+00
 9.324121e-03 -6.031152e-02 0.000000e+00
 8.296296e-02 1.122084e-02 0.000000e+00
 4.092644e-02 -3.007722e-01 0.000000e+00
 2.165217e-01 5.279100e-03 0.000000e+00
 3.446134e-02 -3.360889e-01 0.000000e+00
 5.738069e-02 -2.199442e-01 0.000000e+00
 2.035065e-03 -1.174456e-01 0.000000e+00
 1.475709e-01 8.382845e-03 0.000000e+00
 4.505302e-03 -1.618839e-01 0.000000e+00
 6.037168e-03 -7.365745e-02 0.000000e+00
 5.445425e-03 -9.159769e-02 0.000000e+00
 1.489296e-02 -3.629800e-01 0.000000e+00
 2.455272e-02 -3.789669e-01 0.000000e+00
 3.617428e-01 5.424370e-03 0.000000e+00
 3.468933e-03 -9.200589e-02 0.000000e+00
 1.473707e-02 -3.601787e-01 0.000000e+00
 1.354633e-01 -1.971268e-02 0.000000e+00
 4.814837e-03 -3.341226e-01 0.000000e+00
 1.384558e-01 -3.398713e-01 0.000000e+00
 1.752512e-01 -2.941564e-01 0.000000e+00
 1.979142e-01 6.297268e-03 0.000000e+00
 3.113631e-01 -1.728562e-01 0.000000e+00
 3.980064e-01 1.809601e-02 0.000000e+00
 6.314894e-02 4.449670e-03 0.000000e+00
 3.579809e-01 -1.291003e-01 0.000000e+00
 7.519200e-02 1.422804e-03 0.000000e+00
 7.193844e-02 1.277559e-03 0.000000e+00
 0.000000e+00 0.000000e+00 0.000000e+00
 5.206926e-02 -1.107824e-02 0.000000e+00
 1.033691e-01 -6.661627e-02 0.000000e+00
 0.000000e+00 0.000000e+00 0.000000e+00
 -9.496190e-04 3.601372e-03 0.000000e+00
 -1.872070e-03 1.865806e-03 0.000000e+00
 0.000000e+00 0.000000e+00 0.000000e+00
 2.396934e-01 -1.601968e-01 0.000000e+00
 1.559620e-01 -1.968081e-01 0.000000e+00
 2.761003e-04 -6.711142e-02 0.000000e+00
 3.569177e-04 -6.622195e-02 0.000000e+00
 0.000000e+00 0.000000e+00 0.000000e+00
 9.068053e-04 -1.579296e-01 0.000000e+00
 2.212067e-04 -3.630147e-02 0.000000e+00
 6.056699e-04 -1.021682e-01 0.000000e+00
 1.063353e-04 -3.600732e-02 0.000000e+00
 0.000000e+00 0.000000e+00 0.000000e+00
 6.851824e-04 -1.289456e-01 0.000000e+00
 2.819627e-04 -7.277363e-02 0.000000e+00
 3.239378e-03 -4.774479e-03 0.000000e+00
 -4.551179e-04 -1.977985e-03 0.000000e+00
 -3.323811e-03 6.124502e-04 0.000000e+00
 7.080085e-04 -7.883897e-02 0.000000e+00
 4.513546e-04 -8.004227e-02 0.000000e+00
 0.000000e+00 0.000000e+00 0.000000e+00
 8.211994e-03 -4.549009e-03 0.000000e+00
 0.000000e+00 0.000000e+00 0.000000e+00
 0.000000e+00 0.000000e+00 0.000000e+00
 9.121596e-02 -2.490431e-02 0.000000e+00
 4.051382e-02 -4.513792e-03 0.000000e+00
 4.781978e-02 -1.008442e-02 0.000000e+00
 2.148823e-03 -1.492842e-01 0.000000e+00
 4.858741e-04 -4.932504e-02 0.000000e+00
 6.725751e-04 -4.760341e-02 0.000000e+00
 0.000000e+00 0.000000e+00 0.000000e+00
 1.262424e-02 -1.629550e-02 0.000000e+00
 2.564584e-03 -3.280310e-03 0.000000e+00
 2.860640e-02 -8.838946e-03 0.000000e+00
 0.000000e+00 0.000000e+00 0.000000e+00
 5.427262e-02 -4.323994e-03 0.000000e+00
 0.000000e+00 0.000000e+00 0.000000e+00
 1.139789e-01 -5.347255e-03 0.000000e+00
 9.999638e-02 -7.254883e-03 0.000000e+00
 0.000000e+00 0.000000e+00 0.000000e+00
 2.710844e-01 -5.550427e-02 0.000000e+00
 2.055733e-01 -4.253935e-02 0.000000e+00
 2.529180e-01 -8.464415e-02 0.000000e+00
 9.736877e-02 -4.690485e-04 0.000000e+00
 9.305341e-02 -1.803315e-03 0.000000e+00
 0.000000e+00 0.000000e+00 0.000000e+00
 2.340702e-01 -4.028113e-03 0.000000e+00
 1.485814e-01 3.539545e-04 0.000000e+00
 1.138436e-01 5.035197e-03 0.000000e+00
 5.880494e-02 2.792929e-03 0.000000e+00
 2.990309e-02 1.087357e-03 0.000000e+00
 5.111829e-03 -1.341797e-01 0.000000e+00
 7.751433e-04 -3.862753e-02 0.000000e+00
 1.691459e-03 -7.576282e-02 0.000000e+00
 1.007112e-03 -3.559501e-02 0.000000e+00
 0.000000e+00 0.000000e+00 0.000000e+00
 1.387982e-01 -2.798628e-01 0.000000e+00
 1.754758e-01 -2.574902e-01 0.000000e+00
 1.359650e-01 -2.436785e-01 0.000000e+00
 1.213326e-02 -1.376970e-01 0.000000e+00
 3.940350e-02 -1.747728e-01 0.000000e+00
 0.000000e+00 0.000000e+00 0.000000e+00
 2.265513e-02 -2.345674e-01 0.000000e+00
 5.084186e-03 -1.034453e-01 0.000000e+00
 7.466521e-03 -1.819628e-01 0.000000e+00
 1.529295e-03 -7.455871e-02 0.000000e+00
 2.897200e-03 -9.381409e-02 0.000000e+00
 8.859199e-04 -7.072234e-02 0.000000e+00
 0.000000e+00 0.000000e+00 0.000000e+00
 2.727259e-03 -3.500426e-01 0.000000e+00
 1.993694e-03 -2.815149e-01 0.000000e+00
 2.151047e-03 -3.135933e-01 0.000000e+00
 1.045516e-01 6.549202e-03 0.000000e+00
 2.441112e-02 1.343554e-03 0.000000e+00
 1.509418e-01 5.219596e-03 0.000000e+00
 3.285519e-02 1.128154e-03 0.000000e+00
 9.834190e-02 3.147302e-03 0.000000e+00
 2.489648e-01 3.652432e-03 0.000000e+00
 1.073472e-01 2.317410e-03 0.000000e+00
 1.480328e-01 2.268032e-03 0.000000e+00
 1.312684e-01 1.491554e-02 0.000000e+00
 2.630159e-02 4.043923e-03 0.000000e+00
 6.539640e-02 6.668379e-03 0.000000e+00
 2.077015e-01 6.101477e-03 0.000000e+00
 9.894728e-02 2.177962e-03 0.000000e+00
 0.000000e+00 0.000000e+00 0.000000e+00
 1.678944e-02 4.229453e-03 0.000000e+00
 0.000000e+00 0.000000e+00 0.000000e+00
 1.533923e-03 -3.276215e-02 0.000000e+00
 1.347521e-03 -3.754826e-02 0.000000e+00
 0.000000e+00 0.000000e+00 0.000000e+00
 1.310502e-02 -1.496119e-01 0.000000e+00
 1.152933e-02 -1.634006e-01 0.000000e+00
 2.113562e-02 -2.174895e-01 0.000000e+00
 4.695704e-04 -8.664450e-02 0.000000e+00
 7.160512e-04 -8.759306e-02 0.000000e+00
 0.000000e+00 0.000000e+00 0.000000e+00
 1.600929e-02 -1.001678e-01 0.000000e+00
 2.084008e-03 -2.254449e-02 0.000000e+00
 5.548480e-03 -5.402420e-02 0.000000e+00
 3.858799e-01 1.821373e-02 0.000000e+00
 3.910363e-01 1.586109e-02 0.000000e+00
 3.679308e-01 1.363318e-02 0.000000e+00
 1.511133e-02 3.295771e-03 0.000000e+00
 2.054444e-02 5.141412e-03 0.000000e+00
 0.000000e+00 0.000000e+00 0.000000e+00
 1.857490e-03 -1.602526e-02 0.000000e+00
 0.000000e+00 0.000000e+00 0.000000e+00
 3.258000e-03 -1.302480e-02 0.000000e+00
 3.731237e-03 -2.162557e-02 0.000000e+00
 0.000000e+00 0.000000e+00 0.000000e+00
 3.132322e-03 -3.853498e-01 0.000000e+00
 3.149521e-03 -3.862220e-01 0.000000e+00
 2.937402e-03 -3.890925e-01 0.000000e+00
 1.928469e-03 -2.816558e-01 0.000000e+00
 2.655394e-03 -3.548059e-01 0.000000e+00
 2.345926e-03 -3.336682e-01 0.000000e+00
 2.074935e-01 4.825555e-03 0.000000e+00
 1.186639e-01 2.265824e-03 0.000000e+00
 8.805925e-02 1.963879e-03 0.000000e+00
 9.263676e-02 2.277808e-03 0.000000e+00
 0.000000e+00 0.000000e+00 0.000000e+00
 4.088371e-01 9.988304e-03 0.000000e+00
 4.079658e-01 -7.442510e-03 0.000000e+00
 4.007781e-01 2.672831e-03 0.000000e+00
 3.837069e-01 1.714212e-02 0.000000e+00
 3.903632e-01 1.485482e-02 0.000000e+00
 1.695969e-03 -2.431596e-01 0.000000e+00
 1.238892e-03 -1.998411e-01 0.000000e+00
 7.110875e-04 -1.162133e-01 0.000000e+00
 1.900040e-01 -1.458142e-01 0.000000e+00
 1.582660e-01 -1.706473e-01 0.000000e+00
 2.057924e-01 -1.940783e-01 0.000000e+00
 1.137023e-01 -1.466913e-01 0.000000e+00
 1.252254e-01 -1.932234e-01 0.000000e+00
 4.763306e-02 -3.575650e-01 0.000000e+00
 3.398725e-02 -3.648312e-01 0.000000e+00
 4.515834e-02 -3.783887e-01 0.000000e+00
 2.719912e-01 8.901399e-03 0.000000e+00
 3.024512e-01 9.226547e-03 0.000000e+00
 3.393991e-01 -4.008719e-03 0.000000e+00
 3.882307e-01 -8.253800e-03 0.000000e+00
 3.739127e-01 -2.068796e-02 0.000000e+00
 2.797049e-01 1.357683e-02 0.000000e+00
 3.498114e-01 1.755780e-02 0.000000e+00
 3.100676e-01 1.226698e-02 0.000000e+00
 2.076454e-02 -3.862938e-01 0.000000e+00
 2.883637e-02 -3.883541e-01 0.000000e+00
 2.351374e-02 -3.877182e-01 0.000000e+00
 2.270761e-03 -2.592117e-01 0.000000e+00
 1.125865e-03 -1.705550e-01 0.000000e+00
 3.730176e-01 -1.137349e-01 0.000000e+00
 3.490660e-01 -1.574738e-01 0.000000e+00
 3.544582e-01 -1.345793e-01 0.000000e+00
 5.426551e-04 2.211714e-03 0.000000e+00
 1.486544e-03 -1.839141e-03 0.000000e+00
 0.000000e+00 0.000000e+00 0.000000e+00
 3.370883e-01 9.671864e-03 0.000000e+00
 4.547780e-02 -1.134113e-01 0.000000e+00
 7.099310e-02 -1.129838e-01 0.000000e+00
 3.478824e-02 -7.362400e-02 0.000000e+00
 3.867823e-01 -8.241791e-02 0.000000e+00
 3.901362e-01 -5.034072e-02 0.000000e+00
 3.996699e-01 -4.666840e-02 0.000000e+00
 3.503752e-01 -8.692040e-02 0.000000e+00
 3.610988e-01 -5.052033e-02 0.000000e+00
 3.241507e-01 -6.126222e-02 0.000000e+00
 2.139142e-03 -2.600028e-01 0.000000e+00
 1.189619e-03 -1.970972e-01 0.000000e+00
 4.822928e-03 -3.728838e-01 0.000000e+00
 6.867090e-03 -3.600498e-01 0.000000e+00
 6.367833e-03 -3.847260e-01 0.000000e+00
 1.709079e-02 -3.394746e-01 0.000000e+00
 2.185335e-02 -3.743025e-01 0.000000e+00
 2.557245e-02 -3.579199e-01 0.000000e+00
 2.438231e-02 -1.731758e-01 0.000000e+00
 4.162873e-02 -2.507132e-01 0.000000e+00
 4.336997e-02 -2.208100e-01 0.000000e+00
 9.051385e-02 -3.646935e-01 0.000000e+00
 9.425165e-02 -3.267967e-01 0.000000e+00
 6.782966e-02 -3.352398e-01 0.000000e+00
 1.873945e-01 -3.070401e-01 0.000000e+00
 1.086445e-01 -2.466869e-01 0.000000e+00
 1.774599e-01 5.081928e-03 0.000000e+00
 0.000000e+00 0.000000e+00 0.000000e+00
 2.497325e-01 1.612926e-02 0.000000e+00
 1.848959e-01 7.858912e-03 0.000000e+00
 3.460801e-01 1.631667e-02 0.000000e+00
 3.904385e-01 2.152778e-02 0.000000e+00
 3.879985e-01 2.098864e-02 0.000000e+00
 3.315409e-02 -2.545937e-01 0.000000e+00
 5.187746e-02 -2.952024e-01 0.000000e+00
 1.027239e-02 -3.434973e-01 0.000000e+00
 1.145700e-02 -3.208755e-01 0.000000e+00
 7.535224e-03 -2.946765e-01 0.000000e+00
 5.632888e-02 -3.850478e-01 0.000000e+00
 6.029374e-02 -3.720896e-01 0.000000e+00
 7.657657e-02 -3.804326e-01 0.000000e+00
 3.735507e-01 2.229768e-02 0.000000e+00
 3.957546e-01 2.393809e-02 0.000000e+00
 3.764615e-01 2.663351e-02 0.000000e+00
 3.541211e-01 4.470856e-04 0.000000e+00
 3.735122e-01 8.615997e-03 0.000000e+00
 3.069090e-01 5.335228e-03 0.000000e+00
 3.712059e-01 2.623412e-02 0.000000e+00
 3.822209e-01 2.839371e-02 0.000000e+00
 3.992486e-01 2.540451e-02 0.000000e+00
 2.767361e-01 -1.706429e-01 0.000000e+00
 3.148245e-01 -1.328206e-01 0.000000e+00
 2.785215e-01 -1.308446e-01 0.000000e+00
 3.147698e-01 -8.994078e-02 0.000000e+00
 3.027449e-01 -1.432555e-01 0.000000e+00
 1.175658e-01 -7.481825e-02 0.000000e+00
 1.726268e-01 -9.677704e-02 0.000000e+00
 1.336302e-01 -5.059898e-02 0.000000e+00
 1.140887e-01 -1.787620e-02 0.000000e+00
 7.115280e-02 -5.228000e-03 0.000000e+00
 9.656893e-02 -2.077285e-01 0.000000e+00
 6.363741e-02 -1.643638e-01 0.000000e+00
 7.289358e-02 -2.121236e-01 0.000000e+00
 3.865101e-01 -4.271159e-02 0.000000e+00
 3.573408e-01 -2.924970e-02 0.000000e+00
 6.229283e-03 -3.887987e-01 0.000000e+00
 9.523938e-03 -3.894706e-01 0.000000e+00
 1.054695e-02 -3.274680e-01 0.000000e+00
 1.189580e-02 -3.708620e-01 0.000000e+00
 8.636100e-03 -3.410395e-01 0.000000e+00
 1.229896e-02 -2.533835e-01 0.000000e+00
 1.909203e-02 -2.756733e-01 0.000000e+00
 1.125486e-02 -2.070745e-01 0.000000e+00
 4.157887e-03 -3.775329e-01 0.000000e+00
 4.253720e-02 -2.425766e-02 0.000000e+00
 3.636784e-02 -3.757194e-02 0.000000e+00
 7.328339e-02 -5.599797e-02 0.000000e+00
 1.252660e-02 -3.353850e-02 0.000000e+00
 2.591174e-02 -4.098573e-02 0.000000e+00
 4.293164e-03 -2.608911e-01 0.000000e+00
 4.268907e-03 -2.247640e-01 0.000000e+00
 8.130180e-03 -3.595342e-01 0.000000e+00
 4.717842e-03 -3.241930e-01 0.000000e+00
 5.531310e-03 -3.614223e-01 0.000000e+00
 3.928130e-01 -8.500912e-03 0.000000e+00
 3.459295e-01 -7.723539e-03 0.000000e+00
 1.981389e-01 -1.327168e-02 0.000000e+00
 2.658461e-01 -2.985690e-02 0.000000e+00
 2.680496e-01 -1.668878e-02 0.000000e+00
 4.500330e-02 -3.310743e-01 0.000000e+00
 7.046192e-02 -3.435285e-01 0.000000e+00
 2.916155e-01 -2.243706e-01 0.000000e+00
 9.406788e-02 2.320200e-03 0.000000e+00
 0.000000e+00 0.000000e+00 0.000000e+00
 3.092856e-01 -1.173976e-02 0.000000e+00
 7.936157e-02 -2.423556e-01 0.000000e+00
 6.155780e-02 -2.536363e-01 0.000000e+00
 8.346880e-02 -2.752128e-01 0.000000e+00
 1.308636e-02 -6.247323e-02 0.000000e+00
 2.393321e-02 -1.116390e-01 0.000000e+00
 2.977633e-02 -1.055654e-01 0.000000e+00
 5.752505e-03 -3.074016e-01 0.000000e+00
 3.282070e-03 -2.736622e-01 0.000000e+00
 3.451961e-03 -2.346628e-01 0.000000e+00
 2.147541e-01 -2.788872e-01 0.000000e+00
 1.902925e-01 -3.131245e-01 0.000000e+00
 2.314935e-01 -2.915458e-01 0.000000e+00
 2.571756e-02 -3.261826e-01 0.000000e+00
 2.649724e-02 -2.914866e-01 0.000000e+00
 1.431296e-03 -2.222035e-02 0.000000e+00
 1.510407e-03 -2.791465e-02 0.000000e+00
 0.000000e+00 0.000000e+00 0.000000e+00
 3.808532e-02 -3.197807e-01 0.000000e+00
 5.321811e-02 -3.429938e-01 0.000000e+00
 1.518121e-01 -3.258298e-01 0.000000e+00
 1.212405e-01 -3.082931e-01 0.000000e+00
 3.880732e-02 -1.866729e-01 0.000000e+00
 5.146137e-02 -1.890750e-01 0.000000e+00
 3.329010e-02 -1.559245e-01 0.000000e+00
 3.779373e-01 1.822084e-02 0.000000e+00
 4.021992e-01 2.341399e-02 0.000000e+00
 2.169949e-01 4.140636e-04 0.000000e+00
 1.934791e-01 1.480440e-02 0.000000e+00
 2.894796e-01 9.260015e-03 0.000000e+00
 3.365419e-01 -1.525750e-01 0.000000e+00
 3.380934e-01 -1.153007e-01 0.000000e+00
 3.514301e-01 -4.981550e-02 0.000000e+00
 2.616286e-01 -3.946697e-02 0.000000e+00
 2.228913e-01 -1.113781e-01 0.000000e+00
 2.636599e-01 -2.725102e-01 0.000000e+00
 2.250166e-01 -3.060849e-01 0.000000e+00
 0.000000e+00 0.000000e+00 0.000000e+00
 3.809351e-02 -3.867440e-01 0.000000e+00
 3.200081e-02 -3.733884e-01 0.000000e+00
 2.127759e-02 -3.552169e-01 0.000000e+00
 2.704156e-02 -3.446527e-01 0.000000e+00
 1.248174e-02 -3.878295e-01 0.000000e+00
 1.291257e-02 -3.860777e-01 0.000000e+00
 2.690043e-01 2.549977e-02 0.000000e+00
 3.084906e-01 2.665739e-02 0.000000e+00
 2.240442e-01 2.330807e-02 0.000000e+00
 3.817555e-01 1.312917e-02 0.000000e+00
 3.214974e-01 1.593451e-02 0.000000e+00
 3.510010e-01 2.055244e-02 0.000000e+00
 2.806829e-01 1.150292e-02 0.000000e+00
 2.838872e-01 1.090784e-02 0.000000e+00
 9.126998e-02 1.151050e-02 0.000000e+00
 1.794076e-01 1.911411e-02 0.000000e+00
 3.317243e-01 2.682806e-02 0.000000e+00
 9.544443e-02 -1.002541e-01 0.000000e+00
 8.450660e-02 -3.160786e-01 0.000000e+00
 1.087051e-01 -3.609200e-01 0.000000e+00
 5.933056e-03 -2.232416e-01 0.000000e+00
 1.009348e-02 -2.479728e-01 0.000000e+00
 1.053426e-02 -2.947345e-01 0.000000e+00
 2.012788e-03 -1.373884e-01 0.000000e+00
 2.793386e-02 -3.095963e-01 0.000000e+00
 1.560863e-02 -2.663864e-01 0.000000e+00
 1.492729e-01 -3.803428e-02 0.000000e+00
 1.674325e-01 -2.195518e-02 0.000000e+00
 1.723688e-01 -4.046408e-02 0.000000e+00
 4.421400e-03 -9.238684e-02 0.000000e+00
 9.396576e-03 -1.660854e-01 0.000000e+00
 3.830313e-03 -1.482048e-01 0.000000e+00
 4.660812e-03 -1.954140e-01 0.000000e+00
 7.499028e-03 -2.219618e-01 0.000000e+00
 1.652423e-02 -3.823892e-01 0.000000e+00
 1.162920e-02 -3.729709e-01 0.000000e+00
 1.241756e-02 -2.905795e-01 0.000000e+00
 3.987406e-01 1.205034e-02 0.000000e+00
 3.742998e-01 1.412363e-02 0.000000e+00
 2.844815e-01 1.129470e-02 0.000000e+00
 2.736803e-01 9.377216e-03 0.000000e+00
 3.399221e-01 1.412385e-02 0.000000e+00
 3.407879e-03 -3.241645e-01 0.000000e+00
 3.564205e-03 -3.676632e-01 0.000000e+00
 1.433014e-03 -1.751546e-01 0.000000e+00
 2.976307e-03 -2.639395e-01 0.000000e+00
 1.107486e-01 -3.711117e-01 0.000000e+00
 1.407689e-01 -3.607408e-01 0.000000e+00
 1.755591e-01 -3.409813e-01 0.000000e+00
 1.599798e-01 -3.428165e-01 0.000000e+00
 1.466168e-01 -1.334837e-02 0.000000e+00
 3.727047e-01 -9.696085e-02 0.000000e+00
 2.632175e-01 2.144026e-02 0.000000e+00
 4.036658e-01 -2.459925e-02 0.000000e+00
 2.529119e-01 -2.079483e-01 0.000000e+00
 2.133107e-01 -2.419489e-01 0.000000e+00
 2.983525e-01 -2.284201e-01 0.000000e+00