<?xml version="1.0"?>
<VTKFile type="UnstructuredGrid"  version="0.1"  >
<UnstructuredGrid>
<Piece  NumberOfPoints="505" NumberOfCells="928">
<Points>
<DataArray  type="Float32"  NumberOfComponents="3"  format="ascii">
0 0 0
1 0 0
0 1 0
1 0.5 0
0.5 0.5 0
0.5 1 0
0.1 0 0
0.2 0 0
0.3 0 0
0.4 0 0
0.5 0 0
0.6 0 0
0.7 0 0
0.8 0 0
0.9 0 0
0 0.9 0
0 0.8 0
0 0.7 0
0 0.6 0
0 0.5 0
0 0.4 0
0 0.3 0
0 0.2 0
0 0.1 0
0.9 0.5 0
0.8 0.5 0
0.7 0.5 0
0.6 0.5 0
0.5 0.6 0
0.5 0.7 0
0.5 0.8 0
0.5 0.9 0
0.1 1 0
0.2 1 0
0.3 1 0
0.4 1 0
1 0.1 0
1 0.2 0
1 0.3 0
1 0.4 0
0.300178 0.296564 0
0.247566 0.664879 0
0.639694 0.259804 0
0.06564 0.06472 0
0.04439 0.954144 0
0.932418 0.064715 0
0.951013 0.456419 0
0.437622 0.939659 0
0.195334 0.464441 0
0.483382 0.329596 0
0.834786 0.236295 0
0.307228 0.81139 0
0.178229 0.173372 0
0.366998 0.134199 0
0.547485 0.14214 0
0.124832 0.74927 0
0.160163 0.896658 0
0.342556 0.535243 0
0.147651 0.342018 0
0.729803 0.127878 0
0.725981 0.357775 0
0.121369 0.600441 0
0.372954 0.70814 0
0.908503 0.151525 0
0.89851 0.333305 0
0.556275 0.400898 0
0.259184 0.092178 0
0.46329 0.194362 0
0.423773 0.869712 0
0.22823 0.818162 0
0.081292 0.144905 0
0.082979 0.831935 0
0.549999 0.065419 0
0.371537 0.407588 0
0.642628 0.097865 0
0.459835 0.086595 0
0.108565 0.418567 0
0.273082 0.902112 0
0.256598 0.556659 0
0.11951 0.509541 0
0.234147 0.370527 0
0.097453 0.253261 0
0.638438 0.342389 0
0.554656 0.224779 0
0.373432 0.237603 0
0.339663 0.62579 0
0.27079 0.747786 0
0.733958 0.266592 0
0.928527 0.244458 0
0.853116 0.071497 0
0.818426 0.404817 0
0.280194 0.200604 0
0.417859 0.565185 0
0.147241 0.079056 0
0.389149 0.789957 0
0.42808 0.654642 0
0.343469 0.059202 0
0.086765 0.684153 0
0.162043 0.675011 0
0.809252 0.14201 0
0.364337 0.928607 0
0.077532 0.916553 0
0.159064 0.807906 0
0.302124 0.454032 0
0.205909 0.272176 0
0.449664 0.407415 0
0.66041 0.423241 0
0.562201 0.303789 0
0.802658 0.320211 0
0.614551 0.182931 0
0.390944 0.331035 0
0.687136 0.18846 0
0.070577 0.342498 0
0.741087 0.437361 0
0.176989 0.547528 0
0.710251 0.07409 0
0.192845 0.608574 0
0.171114 0.398277 0
0.058959 0.753084 0
0.904 0.425508 0
0.438039 0.730373 0
0.057223 0.475897 0
0.058502 0.552106 0
0.330493 0.750997 0
0.312295 0.699131 0
0.684882 0.307111 0
0.053312 0.627311 0
0.198798 0.743695 0
0.392326 0.069953 0
0.351519 0.860283 0
0.397134 0.477694 0
0.319385 0.371198 0
0.767351 0.069505 0
0.441954 0.271171 0
0.759504 0.192785 0
0.855661 0.457701 0
0.500847 0.264652 0
0.916209 0.0323575 0
0.966209 0.0323575 0
0.95 0 0
0.578137 0.450449 0
0.528137 0.450449 0
0.55 0.5 0
0.03282 0.08236 0
0.03282 0.03236 0
0 0.05 0
0.502969 0.404157 0
0.474832 0.453708 0
0.468811 0.91983 0
0.468811 0.96983 0
0.5 0.95 0
0.072195 0.977072 0
0.022195 0.977072 0
0.05 1 0
0.022195 0.927072 0
0 0.95 0
0.060961 0.935348 0
0.038766 0.908276 0
0.106441 0.071888 0
0.123621 0.039528 0
0.08282 0.03236 0
0.0414895 0.815967 0
0.0414895 0.865968 0
0 0.85 0
0.173621 0.039528 0
0.15 0 0
0.05 0 0
0.301327 0.07569 0
0.321735 0.029601 0
0.279592 0.046089 0
0.070969 0.792509 0
0.0294795 0.776542 0
0.0294795 0.726542 0
0 0.75 0
0.114267 0.111981 0
0.073466 0.104813 0
0.229592 0.046089 0
0.25 0 0
0.371735 0.029601 0
0.35 0 0
0.479917 0.0432975 0
0.429918 0.0432975 0
0.45 0 0
0.461562 0.140479 0
0.413416 0.110397 0
0.415144 0.16428 0
0.574999 0.0327095 0
0.525 0.0327095 0
0.55 0 0
0.596313 0.081642 0
0.621314 0.0489325 0
0.927507 0.440964 0
0.902 0.462754 0
0.925507 0.47821 0
0.0700385 0.655732 0
0.026656 0.663655 0
0.0433825 0.692076 0
0.026656 0.613655 0
0 0.65 0
0.276766 0.370862 0
0.309781 0.333881 0
0.267162 0.333545 0
0.458929 0.582593 0
0.458929 0.532593 0
0.5 0.55 0
0.422969 0.609913 0
0.46404 0.627321 0
0.43306 0.692508 0
0.46902 0.715186 0
0.46404 0.677321 0
0.46902 0.765186 0
0.5 0.75 0
0.180082 0.948329 0
0.130082 0.948329 0
0.15 1 0
0.87983 0.441605 0
0.87783 0.478851 0
0.975507 0.42821 0
0.975507 0.47821 0
1 0.45 0
0.676439 0.0859775 0
0.705125 0.037045 0
0.671314 0.0489325 0
0.779756 0.421089 0
0.770544 0.46868 0
0.809213 0.452408 0
0.738801 0.0717975 0
0.733675 0.0347525 0
0.95 0.5 0
0.720544 0.46868 0
0.75 0.5 0
0.029251 0.526053 0
0.029251 0.576053 0
0 0.55 0
0.089006 0.530824 0
0.0899355 0.576273 0
0.12044 0.554991 0
0.461886 0.884856 0
0.461886 0.834856 0
0.5 0.85 0
0.089571 0.380533 0
0.0352885 0.371249 0
0.0542825 0.409284 0
0.918515 0.197991 0
0.964263 0.222229 0
0.954252 0.175762 0
0.630205 0.46162 0
0.680205 0.46162 0
0.65 0.5 0
0.0352885 0.321249 0
0 0.35 0
0.0487265 0.226631 0
0.0487265 0.276631 0
0 0.25 0
0.286541 0.951056 0
0.236541 0.951056 0
0.25 1 0
0.382169 0.964303 0
0.332168 0.964303 0
0.35 1 0
0.966209 0.0823575 0
1 0.05 0
0.876558 0.0357485 0
0.826558 0.0357485 0
0.85 0 0
0.710547 0.227526 0
0.663415 0.224132 0
0.686826 0.263198 0
0.964263 0.272229 0
1 0.25 0
0.40098 0.934133 0
0.418811 0.96983 0
0.45 1 0
0.326813 0.219104 0
0.290186 0.248584 0
0.336805 0.267084 0
0.243052 0.23639 0
0.253043 0.28437 0
0.224721 0.582616 0
0.220205 0.636726 0
0.252082 0.610769 0
0.92046 0.10812 0
0.954252 0.125762 0
0.66166 0.32475 0
0.662288 0.283458 0
0.639066 0.301096 0
0.949255 0.366653 0
0.949255 0.316653 0
1 0.35 0
0.291542 0.723459 0
0.27993 0.682005 0
0.259178 0.706333 0
0.394055 0.89916 0
0.430698 0.904686 0
0.531524 0.28422 0
0.492115 0.297124 0
0.522791 0.316692 0
0.040646 0.122453 0
0.040646 0.172453 0
0 0.15 0
1 0.15 0
0.151681 0.262718 0
0.192069 0.222774 0
0.137841 0.213317 0
0.558428 0.264284 0
0.600947 0.281797 0
0.597175 0.242291 0
0.508973 0.20957 0
0.551071 0.183459 0
0.505387 0.168251 0
0.118847 0.906605 0
0.088766 0.958276 0
0.3123 0.881198 0
0.329373 0.835836 0
0.290155 0.856751 0
0.18042 0.709353 0
0.223182 0.704287 0
0.204805 0.669945 0
0.114037 0.464054 0
0.157422 0.486991 0
0.15195 0.441504 0
0.279361 0.505346 0
0.248729 0.459236 0
0.225966 0.51055 0
0.423399 0.442555 0
0.448567 0.488847 0
0.892767 0.068106 0
0.65 0 0
0.901255 0.379406 0
0.952 0.412754 0
0.858877 0.146767 0
0.822019 0.189153 0
0.871644 0.19391 0
0.14825 0.528535 0
0.186162 0.505985 0
0.178931 0.775801 0
0.161815 0.746482 0
0.141948 0.778588 0
0.29813 0.591225 0
0.34111 0.580516 0
0.299577 0.545951 0
0.913519 0.288882 0
0.881657 0.240376 0
0.866648 0.2848 0
0.664882 0.143162 0
0.708469 0.158169 0
0.686215 0.112871 0
0.768308 0.293401 0
0.818722 0.278253 0
0.784372 0.251443 0
0.407693 0.254387 0
0.452622 0.232766 0
0.418361 0.215983 0
0.559238 0.352343 0
0.519829 0.365247 0
0.269689 0.146391 0
0.323596 0.167402 0
0.313091 0.113188 0
0.367897 0.0645775 0
0.396163 0.0349765 0
0.220028 0.321352 0
0.17678 0.307097 0
0.190899 0.356272 0
0.584604 0.203855 0
0.581018 0.162535 0
0.250656 0.860137 0
0.267729 0.814776 0
0.359821 0.770477 0
0.31886 0.781193 0
0.348189 0.800674 0
0.124404 0.679582 0
0.141706 0.637726 0
0.104067 0.642297 0
0.216622 0.899385 0
0.203213 0.085617 0
0.162735 0.126214 0
0.218707 0.132775 0
0.0893725 0.199083 0
0.129761 0.159139 0
0.121022 0.819921 0
0.103905 0.790602 0
0.193647 0.813034 0
0.159614 0.852282 0
0.194196 0.85741 0
0.650843 0.185696 0
0.628589 0.140398 0
0.504917 0.076007 0
0.50366 0.114367 0
0.548742 0.103779 0
0.378761 0.595487 0
0.380208 0.550214 0
0.466523 0.368506 0
0.783675 0.0347525 0
0.75 0 0
0.595056 0.120002 0
0.20263 0.384402 0
0.183224 0.431359 0
0.214741 0.417484 0
0.084015 0.29788 0
0.109114 0.342258 0
0.122552 0.29764 0
0.370334 0.82512 0
0.387646 0.864998 0
0.406461 0.829835 0
0.355164 0.351116 0
0.345461 0.389393 0
0.38124 0.369312 0
0.177444 0.641792 0
0.157107 0.604507 0
0.0286115 0.437949 0
0.0286115 0.487949 0
0 0.45 0
0.184917 0.578051 0
0.216794 0.552094 0
0.310754 0.412615 0
0.268135 0.41228 0
0.13984 0.408422 0
0.159382 0.370147 0
0.128108 0.380293 0
0.784378 0.167398 0
0.797145 0.21454 0
0.649424 0.382815 0
0.693196 0.390508 0
0.682209 0.350082 0
0.471401 0.267911 0
0.482069 0.229507 0
0.600319 0.323089 0
0.597356 0.371644 0
0.370215 0.185901 0
0.420304 0.369225 0
0.410601 0.407502 0
0.5 0.65 0
0.293615 0.645334 0
0.325979 0.66246 0
0.342624 0.703635 0
0.356309 0.666965 0
0.24951 0.782974 0
0.289009 0.779588 0
0.810542 0.362514 0
0.76432 0.338993 0
0.772204 0.381296 0
0.70942 0.286852 0
0.705431 0.332443 0
0.729969 0.312184 0
0.831184 0.106754 0
0.88081 0.111511 0
0.700748 0.430301 0
0.733534 0.397568 0
0.850584 0.326758 0
0.229212 0.186988 0
0.407496 0.52144 0
0.369845 0.506468 0
0.413594 0.760165 0
0.405497 0.719256 0
0.381051 0.749049 0
0.444574 0.794979 0
0.383872 0.640216 0
0.400517 0.681391 0
0.355233 0.0967005 0
0.42608 0.078274 0
0.379662 0.102076 0
0.055907 0.589708 0
0.0873405 0.613876 0
0.072862 0.718619 0
0.0918955 0.751177 0
0.105798 0.716711 0
0.234794 0.74574 0
0.213514 0.780928 0
0.143437 0.712141 0
0.72332 0.190623 0
0.744653 0.160332 0
0.788301 0.105758 0
0.748577 0.0986915 0
0.769527 0.134944 0
0.357928 0.894445 0
0.318709 0.915359 0
0.0802555 0.874244 0
0.121571 0.864297 0
0.32234 0.494638 0
0.349629 0.465863 0
0.384335 0.442641 0
0.336831 0.43081 0
0.608343 0.412069 0
0.527752 0.244716 0
0.858468 0.369061 0
0.627123 0.221367 0
0.382188 0.284319 0
0.345561 0.3138 0
0.437163 0.330315 0
0.746731 0.229689 0
0.149179 0.573985 0
0.720027 0.100984 0
0.810234 0.070501 0
0.861213 0.415162 0
0.827831 0.478851 0
0.85 0.5 0
0.082894 0.447232 0
0.0883665 0.492719 0
0.0578625 0.514002 0
0.300642 0.749391 0
0.351723 0.729569 0
0.321394 0.725064 0
0.416449 0.301103 0
0.462668 0.300384 0
0.837044 0.431259 0
</DataArray>
</Points>
<Cells>
<DataArray  type="UInt32"  Name="connectivity"  format="ascii">
1 138 139 
14 137 139 
45 137 138 
137 138 139 
4 141 142 
27 140 142 
65 140 141 
140 141 142 
0 144 145 
23 143 145 
43 143 144 
143 144 145 
4 141 147 
65 141 146 
105 146 147 
141 146 147 
5 149 150 
31 148 150 
47 148 149 
148 149 150 
2 152 153 
32 151 153 
44 151 152 
151 152 153 
2 152 155 
15 154 155 
44 152 154 
152 154 155 
15 154 157 
44 154 156 
101 156 157 
154 156 157 
6 159 160 
43 158 160 
93 158 159 
158 159 160 
15 162 163 
16 161 163 
71 161 162 
161 162 163 
6 159 165 
7 164 165 
93 159 164 
159 164 165 
[...]
<PointData  Vectors="u"> 
<DataArray  type="Float32"  Name="u"  NumberOfComponents="3" format="ascii">
 0.000000e+00 0.000000e+00 0.000000e+00
 0.000000e+00 0.000000e+00 0.000000e+00
 0.000000e+00 0.000000e+00 0.000000e+00
 0.000000e+00 0.000000e+00 0.000000e+00
 0.000000e+00 0.000000e+00 0.000000e+00
 0.000000e+00 0.000000e+00 0.000000e+00
 0.000000e+00 0.000000e+00 0.000000e+00
 0.000000e+00 0.000000e+00 0.000000e+00
 0.000000e+00 0.000000e+00 0.000000e+00
 0.000000e+00 0.000000e+00 0.000000e+00
 0.000000e+00 0.000000e+00 0.000000e+00
 0.000000e+00 0.000000e+00 0.000000e+00
 0.000000e+00 0.000000e+00 0.000000e+00
 0.000000e+00 0.000000e+00 0.000000e+00
 0.000000e+00 0.000000e+00 0.000000e+00
 0.000000e+00 0.000000e+00 0.000000e+00
 0.000000e+00 0.000000e+00 0.000000e+00
 0.000000e+00 0.000000e+00 0.000000e+00
 0.000000e+00 0.000000e+00 0.000000e+00
 0.000000e+00 0.000000e+00 0.000000e+00
 0.000000e+00 0.000000e+00 0.000000e+00
 0.000000e+00 0.000000e+00 0.000000e+00
 0.000000e+00 0.000000e+00 0.000000e+00
 0.000000e+00 0.000000e+00 0.000000e+00
 0.000000e+00 0.000000e+00 0.000000e+00
 0.000000e+00 0.000000e+00 0.000000e+00
 0.000000e+00 0.000000e+00 0.000000e+00
 0.000000e+00 0.000000e+00 0.000000e+00
 0.000000e+00 0.000000e+00 0.000000e+00
 0.000000e+00 0.000000e+00 0.000000e+00
 0.000000e+00 0.000000e+00 0.000000e+00
 0.000000e+00 0.000000e+00 0.000000e+00
 1.311076e-06 -2.282020e-04 0.000000e+00
 2.042566e-06 -2.329210e-04 0.000000e+00
 1.888261e-06 -2.381620e-04 0.000000e+00
 9.931952e-07 -2.415710e-04 0.000000e+00
 2.279888e-04 -1.081823e-06 0.000000e+00
 2.325327e-04 -1.618205e-06 0.000000e+00
 2.380443e-04 -1.935824e-06 0.000000e+00
 2.418750e-04 -1.524454e-06 0.000000e+00
 1.134428e-04 -1.115958e-04 0.000000e+00
 3.461412e-05 -2.275056e-04 0.000000e+00
 2.265069e-04 -3.993267e-05 0.000000e+00
 2.270404e-05 -2.243492e-05 0.000000e+00
 6.134592e-07 -2.120750e-04 0.000000e+00
 2.158889e-04 -1.363582e-06 0.000000e+00
 2.296595e-04 -8.313646e-07 0.000000e+00
 1.404458e-06 -2.306795e-04 0.000000e+00
 6.048065e-05 -1.756292e-04 0.000000e+00
 2.124074e-04 -1.091627e-04 0.000000e+00
 2.335056e-04 -1.031902e-05 0.000000e+00
 1.249005e-05 -2.398204e-04 0.000000e+00
 6.603273e-05 -6.396707e-05 0.000000e+00
 1.344262e-04 -4.836628e-05 0.000000e+00
 1.887344e-04 -3.301982e-05 0.000000e+00
 1.181534e-05 -2.196426e-04 0.000000e+00
 4.578914e-06 -2.299064e-04 0.000000e+00
 8.853900e-05 -2.351100e-04 0.000000e+00
 5.145591e-05 -1.233037e-04 0.000000e+00
 2.182402e-04 -1.359568e-05 0.000000e+00
 2.497321e-04 -2.185057e-05 0.000000e+00
 2.321369e-05 -1.993819e-04 0.000000e+00
 2.528647e-05 -2.546315e-04 0.000000e+00
 2.292521e-04 -4.088733e-06 0.000000e+00
 2.405062e-04 -5.415631e-06 0.000000e+00
 2.636322e-04 -8.527036e-05 0.000000e+00
 9.023694e-05 -3.469719e-05 0.000000e+00
 1.705452e-04 -5.558489e-05 0.000000e+00
 4.172196e-06 -2.343882e-04 0.000000e+00
 1.131802e-05 -2.325589e-04 0.000000e+00
 3.043850e-05 -5.310404e-05 0.000000e+00
 4.568376e-06 -2.139655e-04 0.000000e+00
 1.767014e-04 -1.520286e-05 0.000000e+00
 1.502840e-04 -1.754737e-04 0.000000e+00
 1.956040e-04 -1.563588e-05 0.000000e+00
 1.577073e-04 -2.615282e-05 0.000000e+00
 3.271838e-05 -1.507511e-04 0.000000e+00
 5.414012e-06 -2.361936e-04 0.000000e+00
 6.047191e-05 -2.120041e-04 0.000000e+00
 3.139207e-05 -1.779301e-04 0.000000e+00
 8.432341e-05 -1.429019e-04 0.000000e+00
 3.551000e-05 -8.776071e-05 0.000000e+00
 2.501327e-04 -4.712803e-05 0.000000e+00
 2.046341e-04 -5.077926e-05 0.000000e+00
 1.422561e-04 -8.233710e-05 0.000000e+00
 5.020182e-05 -2.473885e-04 0.000000e+00
 2.066953e-05 -2.348980e-04 0.000000e+00
 2.342621e-04 -2.176809e-05 0.000000e+00
 2.349003e-04 -4.206161e-06 0.000000e+00
 2.143499e-04 -3.524131e-06 0.000000e+00
 2.475579e-04 -8.850782e-06 0.000000e+00
 1.044589e-04 -7.219755e-05 0.000000e+00
 7.729072e-05 -2.756095e-04 0.000000e+00
 5.402152e-05 -2.973300e-05 0.000000e+00
 1.098852e-05 -2.485190e-04 0.000000e+00
 3.000630e-05 -2.649440e-04 0.000000e+00
 1.155836e-04 -2.080998e-05 0.000000e+00
 1.205401e-05 -2.098040e-04 0.000000e+00
 2.201638e-05 -2.159601e-04 0.000000e+00
 2.256309e-04 -8.652027e-06 0.000000e+00
 3.147584e-06 -2.410828e-04 0.000000e+00
 2.220510e-06 -2.258550e-04 0.000000e+00
 9.742798e-06 -2.265227e-04 0.000000e+00
 9.686110e-05 -1.889507e-04 0.000000e+00
 7.562899e-05 -1.003742e-04 0.000000e+00
 2.247693e-04 -1.689621e-04 0.000000e+00
 2.643791e-04 -3.062666e-05 0.000000e+00
 2.305996e-04 -6.813832e-05 0.000000e+00
 2.412306e-04 -1.341810e-05 0.000000e+00
 2.096096e-04 -3.261238e-05 0.000000e+00
 1.613432e-04 -1.259134e-04 0.000000e+00
 2.198741e-04 -2.373960e-05 0.000000e+00
 2.379725e-05 -1.179687e-04 0.000000e+00
 2.466049e-04 -1.151532e-05 0.000000e+00
 4.276777e-05 -1.949416e-04 0.000000e+00
 2.112163e-04 -9.148056e-06 0.000000e+00
 3.599587e-05 -2.104265e-04 0.000000e+00
 5.721671e-05 -1.484867e-04 0.000000e+00
 5.363003e-06 -2.054588e-04 0.000000e+00
 2.436540e-04 -3.162751e-06 0.000000e+00
 1.185555e-05 -2.467530e-04 0.000000e+00
 1.572515e-05 -1.562878e-04 0.000000e+00
 1.324955e-05 -1.765369e-04 0.000000e+00
 1.942124e-05 -2.441502e-04 0.000000e+00
 3.067371e-05 -2.409809e-04 0.000000e+00
 2.402062e-04 -3.196657e-05 0.000000e+00
 9.077585e-06 -1.899848e-04 0.000000e+00
 1.840776e-05 -2.260755e-04 0.000000e+00
 1.404231e-04 -2.322924e-05 0.000000e+00
 7.654718e-06 -2.422526e-04 0.000000e+00
 1.504671e-04 -2.422853e-04 0.000000e+00
 1.197559e-04 -1.479405e-04 0.000000e+00
 2.076606e-04 -5.506394e-06 0.000000e+00
 1.752182e-04 -9.101142e-05 0.000000e+00
 2.269568e-04 -1.575820e-05 0.000000e+00
 2.330059e-04 -2.629434e-06 0.000000e+00
 1.980401e-04 -7.365074e-05 0.000000e+00
 1.727269e-04 -8.291869e-07 0.000000e+00
 1.745514e-04 -5.334520e-07 0.000000e+00
 0.000000e+00 0.000000e+00 0.000000e+00
 2.487350e-04 -5.383648e-05 0.000000e+00
 2.187909e-04 -1.059371e-04 0.000000e+00
 0.000000e+00 0.000000e+00 0.000000e+00
 1.303529e-05 -2.321022e-05 0.000000e+00
 1.173669e-05 -1.163645e-05 0.000000e+00
 0.000000e+00 0.000000e+00 0.000000e+00
 2.470352e-04 -1.430314e-04 0.000000e+00
 2.627197e-04 -1.852524e-04 0.000000e+00
 9.679377e-07 -1.862199e-04 0.000000e+00
 5.920681e-07 -1.859746e-04 0.000000e+00
 0.000000e+00 0.000000e+00 0.000000e+00
 7.120371e-07 -2.189900e-04 0.000000e+00
 3.038311e-07 -1.732592e-04 0.000000e+00
 2.643402e-07 -2.187075e-04 0.000000e+00
 4.843098e-07 -1.683016e-04 0.000000e+00
 0.000000e+00 0.000000e+00 0.000000e+00
 1.146828e-06 -2.191375e-04 0.000000e+00
 1.637685e-06 -2.178930e-04 0.000000e+00
 3.506757e-05 -2.689617e-05 0.000000e+00
 3.654140e-05 -1.298180e-05 0.000000e+00
 2.347699e-05 -1.286312e-05 0.000000e+00
 2.203231e-06 -1.654423e-04 0.000000e+00
 1.800952e-06 -1.670556e-04 0.000000e+00
 0.000000e+00 0.000000e+00 0.000000e+00
 5.222668e-05 -1.588728e-05 0.000000e+00
 0.000000e+00 0.000000e+00 0.000000e+00
 0.000000e+00 0.000000e+00 0.000000e+00
 1.088590e-04 -2.716292e-05 0.000000e+00
 9.110802e-05 -1.208447e-05 0.000000e+00
 7.419757e-05 -1.302235e-05 0.000000e+00
 5.394724e-06 -2.096467e-04 0.000000e+00
 2.851407e-06 -1.699853e-04 0.000000e+00
 3.417224e-06 -1.633178e-04 0.000000e+00
 0.000000e+00 0.000000e+00 0.000000e+00
 4.389880e-05 -4.297942e-05 0.000000e+00
 2.742367e-05 -3.451229e-05 0.000000e+00
 6.525948e-05 -1.627046e-05 0.000000e+00
 0.000000e+00 0.000000e+00 0.000000e+00
 9.277864e-05 -9.878817e-06 0.000000e+00
 0.000000e+00 0.000000e+00 0.000000e+00
 1.254797e-04 -1.043616e-05 0.000000e+00
 1.134089e-04 -1.032555e-05 0.000000e+00
 0.000000e+00 0.000000e+00 0.000000e+00
 1.659078e-04 -4.159353e-05 0.000000e+00
 1.534173e-04 -3.931532e-05 0.000000e+00
 1.534172e-04 -5.243376e-05 0.000000e+00
 1.517312e-04 -8.129021e-06 0.000000e+00
 1.407162e-04 -8.827874e-06 0.000000e+00
 0.000000e+00 0.000000e+00 0.000000e+00
 1.849351e-04 -1.604549e-05 0.000000e+00
 1.501291e-04 -7.325591e-06 0.000000e+00
 2.364277e-04 -1.530592e-06 0.000000e+00
 2.370732e-04 -1.610680e-06 0.000000e+00
 1.834125e-04 -6.092360e-07 0.000000e+00
 1.073512e-05 -1.989671e-04 0.000000e+00
 4.776528e-06 -1.561928e-04 0.000000e+00
 6.590407e-06 -2.023222e-04 0.000000e+00
 5.149321e-06 -1.496872e-04 0.000000e+00
 0.000000e+00 0.000000e+00 0.000000e+00
 1.051366e-04 -1.475459e-04 0.000000e+00
 1.177739e-04 -1.331314e-04 0.000000e+00
 9.751413e-05 -1.259046e-04 0.000000e+00
 5.013230e-05 -2.551323e-04 0.000000e+00
 1.004784e-04 -2.298346e-04 0.000000e+00
 0.000000e+00 0.000000e+00 0.000000e+00
 4.825874e-05 -2.752179e-04 0.000000e+00
 2.395854e-05 -2.317063e-04 0.000000e+00
 1.849971e-05 -2.549054e-04 0.000000e+00
 7.723383e-06 -2.029664e-04 0.000000e+00
 1.305639e-05 -2.100113e-04 0.000000e+00
 6.193991e-06 -2.000117e-04 0.000000e+00
 0.000000e+00 0.000000e+00 0.000000e+00
 2.649076e-06 -2.317263e-04 0.000000e+00
 2.168779e-06 -2.294372e-04 0.000000e+00
 1.723728e-06 -2.304627e-04 0.000000e+00
 2.385441e-04 -3.118279e-06 0.000000e+00
 1.853619e-04 -1.569847e-06 0.000000e+00
 2.353646e-04 -9.111063e-07 0.000000e+00
 1.885171e-04 -3.719042e-07 0.000000e+00
 2.345971e-04 -3.101764e-07 0.000000e+00
 2.032891e-04 -1.050157e-05 0.000000e+00
 2.048986e-04 -6.560840e-06 0.000000e+00
 1.466238e-04 -5.779100e-06 0.000000e+00
 2.470634e-04 -1.057490e-05 0.000000e+00
 1.984268e-04 -5.663838e-06 0.000000e+00
 2.427759e-04 -5.822360e-06 0.000000e+00
 2.079275e-04 -7.147535e-06 0.000000e+00
 1.573129e-04 -3.063774e-06 0.000000e+00
 0.000000e+00 0.000000e+00 0.000000e+00
 2.046394e-04 -7.661506e-06 0.000000e+00
 0.000000e+00 0.000000e+00 0.000000e+00
 6.702952e-06 -1.359237e-04 0.000000e+00
 5.875390e-06 -1.413260e-04 0.000000e+00
 0.000000e+00 0.000000e+00 0.000000e+00
 2.146694e-05 -1.812445e-04 0.000000e+00
 1.909970e-05 -1.902075e-04 0.000000e+00
 2.709368e-05 -1.890190e-04 0.000000e+00
 1.946951e-06 -1.834333e-04 0.000000e+00
 3.324810e-06 -1.920691e-04 0.000000e+00
 0.000000e+00 0.000000e+00 0.000000e+00
 2.770259e-05 -1.317127e-04 0.000000e+00
 1.353662e-05 -1.019434e-04 0.000000e+00
 1.838040e-05 -1.407842e-04 0.000000e+00
 2.323480e-04 -4.325477e-06 0.000000e+00
 2.339349e-04 -2.294311e-06 0.000000e+00
 2.312415e-04 -1.992494e-06 0.000000e+00
 2.360516e-04 -2.800271e-05 0.000000e+00
 2.105291e-04 -1.378108e-05 0.000000e+00
 0.000000e+00 0.000000e+00 0.000000e+00
 1.376049e-05 -9.083800e-05 0.000000e+00
 0.000000e+00 0.000000e+00 0.000000e+00
 1.668474e-05 -6.430024e-05 0.000000e+00
 1.444724e-05 -7.436692e-05 0.000000e+00
 0.000000e+00 0.000000e+00 0.000000e+00
 2.684883e-06 -2.372341e-04 0.000000e+00
 2.866908e-06 -2.343382e-04 0.000000e+00
 2.052065e-06 -2.356832e-04 0.000000e+00
 1.492842e-06 -2.412431e-04 0.000000e+00
 2.126813e-06 -2.397970e-04 0.000000e+00
 1.376319e-06 -2.405154e-04 0.000000e+00
 2.213661e-04 -1.085487e-06 0.000000e+00
 2.192102e-04 -5.875312e-07 0.000000e+00
 1.698290e-04 -1.440522e-06 0.000000e+00
 1.702309e-04 -2.030573e-06 0.000000e+00
 0.000000e+00 0.000000e+00 0.000000e+00
 2.272576e-04 -2.474196e-05 0.000000e+00
 2.233774e-04 -2.971179e-05 0.000000e+00
 2.298605e-04 -2.980188e-05 0.000000e+00
 2.363504e-04 -2.562188e-06 0.000000e+00
 2.352604e-04 -1.801498e-06 0.000000e+00
 2.209961e-06 -2.400138e-04 0.000000e+00
 9.887264e-07 -2.357957e-04 0.000000e+00
 5.739334e-07 -2.349366e-04 0.000000e+00
 1.249239e-04 -7.764871e-05 0.000000e+00
 1.092117e-04 -9.328848e-05 0.000000e+00
 1.290247e-04 -9.793528e-05 0.000000e+00
 8.958893e-05 -8.699974e-05 0.000000e+00
 9.502561e-05 -1.070592e-04 0.000000e+00
 4.371552e-05 -2.111186e-04 0.000000e+00
 3.677463e-05 -2.176592e-04 0.000000e+00
 4.600284e-05 -2.244356e-04 0.000000e+00
 2.249342e-04 -2.258561e-06 0.000000e+00
 2.288240e-04 -1.700282e-06 0.000000e+00
 2.429948e-04 -3.644341e-05 0.000000e+00
 2.361309e-04 -3.465741e-05 0.000000e+00
 2.370400e-04 -4.732491e-05 0.000000e+00
 2.415869e-04 -2.468573e-06 0.000000e+00
 2.390956e-04 -2.601227e-06 0.000000e+00
 2.404113e-04 -1.790378e-06 0.000000e+00
 2.644868e-05 -2.377160e-04 0.000000e+00
 3.276404e-05 -2.363098e-04 0.000000e+00
 2.595351e-05 -2.323397e-04 0.000000e+00
 3.955066e-06 -2.417927e-04 0.000000e+00
 2.588219e-06 -2.336589e-04 0.000000e+00
 2.116060e-04 -7.366646e-05 0.000000e+00
 2.043946e-04 -8.568962e-05 0.000000e+00
 2.263017e-04 -8.708984e-05 0.000000e+00
 1.327603e-05 -3.608667e-05 0.000000e+00
 1.636228e-05 -5.148529e-05 0.000000e+00
 0.000000e+00 0.000000e+00 0.000000e+00
 2.301906e-04 -1.382437e-06 0.000000e+00
 5.751716e-05 -9.546358e-05 0.000000e+00
 7.005850e-05 -8.256490e-05 0.000000e+00
 5.102592e-05 -7.751458e-05 0.000000e+00
 2.164028e-04 -5.786799e-05 0.000000e+00
 2.282853e-04 -5.297208e-05 0.000000e+00
 2.170476e-04 -4.708602e-05 0.000000e+00
 1.910378e-04 -5.337771e-05 0.000000e+00
 1.949771e-04 -4.341058e-05 0.000000e+00
 1.804905e-04 -4.299437e-05 0.000000e+00
 2.924773e-06 -2.273048e-04 0.000000e+00
 1.800819e-06 -2.273786e-04 0.000000e+00
 7.300573e-06 -2.398674e-04 0.000000e+00
 9.828839e-06 -2.415706e-04 0.000000e+00
 9.378040e-06 -2.380289e-04 0.000000e+00
 2.086651e-05 -2.217153e-04 0.000000e+00
 2.425824e-05 -2.259212e-04 0.000000e+00
 2.704485e-05 -2.209027e-04 0.000000e+00
 3.471266e-05 -1.667746e-04 0.000000e+00
 4.230054e-05 -1.741608e-04 0.000000e+00
 4.441641e-05 -1.638744e-04 0.000000e+00
 7.798261e-05 -2.005088e-04 0.000000e+00
 7.701242e-05 -1.807353e-04 0.000000e+00
 6.439593e-05 -1.918888e-04 0.000000e+00
 1.929597e-04 -2.100470e-04 0.000000e+00
 1.722589e-04 -2.729358e-04 0.000000e+00
 2.170242e-04 -2.411499e-06 0.000000e+00
 0.000000e+00 0.000000e+00 0.000000e+00
 2.431995e-04 -4.048854e-06 0.000000e+00
 2.427679e-04 -2.322806e-06 0.000000e+00
 2.276400e-04 -6.719205e-06 0.000000e+00
 2.292616e-04 -9.469028e-06 0.000000e+00
 2.309247e-04 -6.981556e-06 0.000000e+00
 3.724225e-05 -1.867808e-04 0.000000e+00
 5.012099e-05 -1.885125e-04 0.000000e+00
 1.336954e-05 -2.261852e-04 0.000000e+00
 1.535872e-05 -2.224804e-04 0.000000e+00
 1.067563e-05 -2.235255e-04 0.000000e+00
 5.576910e-05 -2.301580e-04 0.000000e+00
 6.877794e-05 -2.422271e-04 0.000000e+00
 7.665689e-05 -2.230035e-04 0.000000e+00
 2.372035e-04 -4.788971e-06 0.000000e+00
 2.344721e-04 -6.688183e-06 0.000000e+00
 2.373366e-04 -8.250684e-06 0.000000e+00
 2.123211e-04 -2.116802e-05 0.000000e+00
 2.176726e-04 -1.809390e-05 0.000000e+00
 2.122708e-04 -1.550985e-05 0.000000e+00
 2.391581e-04 -1.713214e-05 0.000000e+00
 2.375830e-04 -1.263743e-05 0.000000e+00
 2.343185e-04 -1.589319e-05 0.000000e+00
 1.626519e-04 -8.737997e-05 0.000000e+00
 1.730434e-04 -7.735122e-05 0.000000e+00
 1.550951e-04 -6.790814e-05 0.000000e+00
 2.467242e-04 -7.767829e-05 0.000000e+00
 2.339099e-04 -1.073349e-04 0.000000e+00
 9.961601e-05 -5.482800e-05 0.000000e+00
 1.191521e-04 -5.894052e-05 0.000000e+00
 1.122122e-04 -4.298141e-05 0.000000e+00
 1.290136e-04 -2.224403e-05 0.000000e+00
 1.383269e-04 -1.582580e-05 0.000000e+00
 8.088057e-05 -1.200132e-04 0.000000e+00
 6.214286e-05 -1.134951e-04 0.000000e+00
 6.813526e-05 -1.298924e-04 0.000000e+00
 2.077308e-04 -4.076604e-05 0.000000e+00
 2.013173e-04 -3.207669e-05 0.000000e+00
 8.645353e-06 -2.341692e-04 0.000000e+00
 1.208708e-05 -2.360970e-04 0.000000e+00
 1.685900e-05 -2.462944e-04 0.000000e+00
 1.622199e-05 -2.425903e-04 0.000000e+00
 1.261112e-05 -2.442225e-04 0.000000e+00
 1.717813e-05 -2.121074e-04 0.000000e+00
 2.238282e-05 -2.087977e-04 0.000000e+00
 1.738056e-05 -2.059116e-04 0.000000e+00
 5.149705e-06 -2.329928e-04 0.000000e+00
 6.942708e-05 -3.193538e-05 0.000000e+00
 6.137228e-05 -4.535805e-05 0.000000e+00
 7.982038e-05 -4.946646e-05 0.000000e+00
 3.303669e-05 -6.807286e-05 0.000000e+00
 4.669198e-05 -5.988842e-05 0.000000e+00
 7.825295e-06 -2.248454e-04 0.000000e+00
 8.010525e-06 -2.199337e-04 0.000000e+00
 1.062068e-05 -2.291855e-04 0.000000e+00
 7.446894e-06 -2.276481e-04 0.000000e+00
 8.067102e-06 -2.315156e-04 0.000000e+00
 2.142652e-04 -2.778430e-05 0.000000e+00
 2.064657e-04 -2.653214e-05 0.000000e+00
 1.692866e-04 -1.975847e-05 0.000000e+00
 1.758114e-04 -3.196127e-05 0.000000e+00
 1.847100e-04 -2.282224e-05 0.000000e+00
 6.199311e-05 -2.639303e-04 0.000000e+00
 9.032895e-05 -2.563695e-04 0.000000e+00
 2.170032e-04 -1.341297e-04 0.000000e+00
 1.674780e-04 -2.808941e-06 0.000000e+00
 0.000000e+00 0.000000e+00 0.000000e+00
 1.956609e-04 -2.408045e-05 0.000000e+00
 6.546522e-05 -1.468432e-04 0.000000e+00
 5.839529e-05 -1.566290e-04 0.000000e+00
 7.529158e-05 -1.644859e-04 0.000000e+00
 2.907219e-05 -1.072085e-04 0.000000e+00
 3.599074e-05 -1.218665e-04 0.000000e+00
 4.521826e-05 -1.092084e-04 0.000000e+00
 9.118819e-06 -2.442107e-04 0.000000e+00
 6.397228e-06 -2.427443e-04 0.000000e+00
 6.623527e-06 -2.398955e-04 0.000000e+00
 1.374345e-04 -1.368197e-04 0.000000e+00
 1.343113e-04 -1.608700e-04 0.000000e+00
 1.611381e-04 -1.551368e-04 0.000000e+00
 2.863866e-05 -2.132670e-04 0.000000e+00
 3.062055e-05 -2.050239e-04 0.000000e+00
 1.080958e-05 -1.236200e-04 0.000000e+00
 8.494710e-06 -1.273428e-04 0.000000e+00
 0.000000e+00 0.000000e+00 0.000000e+00
 3.997134e-05 -2.030848e-04 0.000000e+00
 5.036884e-05 -1.999769e-04 0.000000e+00
 1.094675e-04 -1.634699e-04 0.000000e+00
 8.997892e-05 -1.654617e-04 0.000000e+00
 4.915300e-05 -1.505578e-04 0.000000e+00
 5.535706e-05 -1.400414e-04 0.000000e+00
 4.048574e-05 -1.356880e-04 0.000000e+00
 2.265849e-04 -1.239624e-05 0.000000e+00
 2.297136e-04 -1.413242e-05 0.000000e+00
 2.612280e-04 -4.105293e-05 0.000000e+00
 2.582376e-04 -2.680849e-05 0.000000e+00
 2.532758e-04 -3.272538e-05 0.000000e+00
 1.874267e-04 -8.162950e-05 0.000000e+00
 1.863314e-04 -6.681021e-05 0.000000e+00
 2.420698e-04 -5.949849e-05 0.000000e+00
 2.554761e-04 -5.951469e-05 0.000000e+00
 1.391855e-04 -6.510872e-05 0.000000e+00
 1.878219e-04 -1.445049e-04 0.000000e+00
 1.749658e-04 -1.733050e-04 0.000000e+00
 0.000000e+00 0.000000e+00 0.000000e+00
 4.386764e-05 -2.343885e-04 0.000000e+00
 3.674656e-05 -2.421964e-04 0.000000e+00
 2.939184e-05 -2.479123e-04 0.000000e+00
 3.492497e-05 -2.553523e-04 0.000000e+00
 1.598614e-05 -2.338020e-04 0.000000e+00
 1.628480e-05 -2.375477e-04 0.000000e+00
 2.447831e-04 -1.179717e-05 0.000000e+00
 2.440000e-04 -1.695896e-05 0.000000e+00
 2.490430e-04 -1.448265e-05 0.000000e+00
 2.381677e-04 -2.861187e-05 0.000000e+00
 2.437713e-04 -2.917655e-05 0.000000e+00
 2.416978e-04 -2.150596e-05 0.000000e+00
 2.233031e-04 -6.002999e-06 0.000000e+00
 2.249862e-04 -4.347727e-06 0.000000e+00
 2.539122e-04 -1.827639e-05 0.000000e+00
 2.529160e-04 -1.652087e-05 0.000000e+00
 2.408257e-04 -9.456977e-06 0.000000e+00
 8.530093e-05 -6.772314e-05 0.000000e+00
 1.325815e-04 -2.664670e-04 0.000000e+00
 1.149413e-04 -2.368965e-04 0.000000e+00
 1.174950e-05 -2.472225e-04 0.000000e+00
 1.843262e-05 -2.553393e-04 0.000000e+00
 1.723701e-05 -2.520106e-04 0.000000e+00
 6.604601e-06 -2.425903e-04 0.000000e+00
 4.246582e-05 -2.636748e-04 0.000000e+00
 2.899600e-05 -2.609590e-04 0.000000e+00
 1.225899e-04 -3.206629e-05 0.000000e+00
 1.434975e-04 -2.366851e-05 0.000000e+00
 1.390596e-04 -3.032405e-05 0.000000e+00
 1.175318e-05 -1.859061e-04 0.000000e+00
 1.458635e-05 -1.965539e-04 0.000000e+00
 7.848888e-06 -2.075206e-04 0.000000e+00
 8.182924e-06 -2.154929e-04 0.000000e+00
 1.246166e-05 -2.151158e-04 0.000000e+00
 2.012631e-05 -2.305024e-04 0.000000e+00
 1.502663e-05 -2.297041e-04 0.000000e+00
 1.650289e-05 -2.180258e-04 0.000000e+00
 2.244377e-04 -1.958100e-05 0.000000e+00
 2.225961e-04 -1.487236e-05 0.000000e+00
 2.204200e-04 -7.486875e-06 0.000000e+00
 2.176980e-04 -9.514477e-06 0.000000e+00
 2.220052e-04 -1.099336e-05 0.000000e+00
 5.327513e-06 -2.415595e-04 0.000000e+00
 3.933957e-06 -2.393981e-04 0.000000e+00
 3.148030e-06 -2.194198e-04 0.000000e+00
 5.188671e-06 -2.249733e-04 0.000000e+00
 9.494156e-05 -2.178704e-04 0.000000e+00
 1.220678e-04 -2.108169e-04 0.000000e+00
 1.512204e-04 -1.981086e-04 0.000000e+00
 1.285312e-04 -1.870423e-04 0.000000e+00
 2.723644e-04 -4.993259e-05 0.000000e+00
 2.012048e-04 -6.309106e-05 0.000000e+00
 2.441390e-04 -7.417800e-06 0.000000e+00
 2.172589e-04 -3.664322e-05 0.000000e+00