<?xml version="1.0"?>
<VTKFile type="UnstructuredGrid"  version="0.1"  >
<UnstructuredGrid>
<Piece  NumberOfPoints="505" NumberOfCells="928">
<Points>
<DataArray  type="Float32"  NumberOfComponents="3"  format="ascii">
0 0 0
1 0 0
0 1 0
1 0.5 0
0.5 0.5 0
0.5 1 0
0.1 0 0
0.2 0 0
0.3 0 0
0.4 0 0
0.5 0 0
0.6 0 0
0.7 0 0
0.8 0 0
0.9 0 0
0 0.9 0
0 0.8 0
0 0.7 0
0 0.6 0
0 0.5 0
0 0.4 0
0 0.3 0
0 0.2 0
0 0.1 0
0.9 0.5 0
0.8 0.5 0
0.7 0.5 0
0.6 0.5 0
0.5 0.6 0
0.5 0.7 0
0.5 0.8 0
0.5 0.9 0
0.1 1 0
0.2 1 0
0.3 1 0
0.4 1 0
1 0.1 0
1 0.2 0
1 0.3 0
1 0.4 0
0.300178 0.296564 0
0.247566 0.664879 0
0.639694 0.259804 0
0.06564 0.06472 0
0.04439 0.954144 0
0.932418 0.064715 0
0.951013 0.456419 0
0.437622 0.939659 0
0.195334 0.464441 0
0.483382 0.329596 0
0.834786 0.236295 0
0.307228 0.81139 0
0.178229 0.173372 0
0.366998 0.134199 0
0.547485 0.14214 0
0.124832 0.74927 0
0.160163 0.896658 0
0.342556 0.535243 0
0.147651 0.342018 0
0.729803 0.127878 0
0.725981 0.357775 0
0.121369 0.600441 0
0.372954 0.70814 0
0.908503 0.151525 0
0.89851 0.333305 0
0.556275 0.400898 0
0.259184 0.092178 0
0.46329 0.194362 0
0.423773 0.869712 0
0.22823 0.818162 0
0.081292 0.144905 0
0.082979 0.831935 0
0.549999 0.065419 0
0.371537 0.407588 0
0.642628 0.097865 0
0.459835 0.086595 0
0.108565 0.418567 0
0.273082 0.902112 0
0.256598 0.556659 0
0.11951 0.509541 0
0.234147 0.370527 0
0.097453 0.253261 0
0.638438 0.342389 0
0.554656 0.224779 0
0.373432 0.237603 0
0.339663 0.62579 0
0.27079 0.747786 0
0.733958 0.266592 0
0.928527 0.244458 0
0.853116 0.071497 0
0.818426 0.404817 0
0.280194 0.200604 0
0.417859 0.565185 0
0.147241 0.079056 0
0.389149 0.789957 0
0.42808 0.654642 0
0.343469 0.059202 0
0.086765 0.684153 0
0.162043 0.675011 0
0.809252 0.14201 0
0.364337 0.928607 0
0.077532 0.916553 0
0.159064 0.807906 0
0.302124 0.454032 0
0.205909 0.272176 0
0.449664 0.407415 0
0.66041 0.423241 0
0.562201 0.303789 0
0.802658 0.320211 0
0.614551 0.182931 0
0.390944 0.331035 0
0.687136 0.18846 0
0.070577 0.342498 0
0.741087 0.437361 0
0.176989 0.547528 0
0.710251 0.07409 0
0.192845 0.608574 0
0.171114 0.398277 0
0.058959 0.753084 0
0.904 0.425508 0
0.438039 0.730373 0
0.057223 0.475897 0
0.058502 0.552106 0
0.330493 0.750997 0
0.312295 0.699131 0
0.684882 0.307111 0
0.053312 0.627311 0
0.198798 0.743695 0
0.392326 0.069953 0
0.351519 0.860283 0
0.397134 0.477694 0
0.319385 0.371198 0
0.767351 0.069505 0
0.441954 0.271171 0
0.759504 0.192785 0
0.855661 0.457701 0
0.500847 0.264652 0
0.916209 0.0323575 0
0.966209 0.0323575 0
0.95 0 0
0.578137 0.450449 0
0.528137 0.450449 0
0.55 0.5 0
0.03282 0.08236 0
0.03282 0.03236 0
0 0.05 0
0.502969 0.404157 0
0.474832 0.453708 0
0.468811 0.91983 0
0.468811 0.96983 0
0.5 0.95 0
0.072195 0.977072 0
0.022195 0.977072 0
0.05 1 0
0.022195 0.927072 0
0 0.95 0
0.060961 0.935348 0
0.038766 0.908276 0
0.106441 0.071888 0
0.123621 0.039528 0
0.08282 0.03236 0
0.0414895 0.815967 0
0.0414895 0.865968 0
0 0.85 0
0.173621 0.039528 0
0.15 0 0
0.05 0 0
0.301327 0.07569 0
0.321735 0.029601 0
0.279592 0.046089 0
0.070969 0.792509 0
0.0294795 0.776542 0
0.0294795 0.726542 0
0 0.75 0
0.114267 0.111981 0
0.073466 0.104813 0
0.229592 0.046089 0
0.25 0 0
0.371735 0.029601 0
0.35 0 0
0.479917 0.0432975 0
0.429918 0.0432975 0
0.45 0 0
0.461562 0.140479 0
0.413416 0.110397 0
0.415144 0.16428 0
0.574999 0.0327095 0
0.525 0.0327095 0
0.55 0 0
0.596313 0.081642 0
0.621314 0.0489325 0
0.927507 0.440964 0
0.902 0.462754 0
0.925507 0.47821 0
0.0700385 0.655732 0
0.026656 0.663655 0
0.0433825 0.692076 0
0.026656 0.613655 0
0 0.65 0
0.276766 0.370862 0
0.309781 0.333881 0
0.267162 0.333545 0
0.458929 0.582593 0
0.458929 0.532593 0
0.5 0.55 0
0.422969 0.609913 0
0.46404 0.627321 0
0.43306 0.692508 0
0.46902 0.715186 0
0.46404 0.677321 0
0.46902 0.765186 0
0.5 0.75 0
0.180082 0.948329 0
0.130082 0.948329 0
0.15 1 0
0.87983 0.441605 0
0.87783 0.478851 0
0.975507 0.42821 0
0.975507 0.47821 0
1 0.45 0
0.676439 0.0859775 0
0.705125 0.037045 0
0.671314 0.0489325 0
0.779756 0.421089 0
0.770544 0.46868 0
0.809213 0.452408 0
0.738801 0.0717975 0
0.733675 0.0347525 0
0.95 0.5 0
0.720544 0.46868 0
0.75 0.5 0
0.029251 0.526053 0
0.029251 0.576053 0
0 0.55 0
0.089006 0.530824 0
0.0899355 0.576273 0
0.12044 0.554991 0
0.461886 0.884856 0
0.461886 0.834856 0
0.5 0.85 0
0.089571 0.380533 0
0.0352885 0.371249 0
0.0542825 0.409284 0
0.918515 0.197991 0
0.964263 0.222229 0
0.954252 0.175762 0
0.630205 0.46162 0
0.680205 0.46162 0
0.65 0.5 0
0.0352885 0.321249 0
0 0.35 0
0.0487265 0.226631 0
0.0487265 0.276631 0
0 0.25 0
0.286541 0.951056 0
0.236541 0.951056 0
0.25 1 0
0.382169 0.964303 0
0.332168 0.964303 0
0.35 1 0
0.966209 0.0823575 0
1 0.05 0
0.876558 0.0357485 0
0.826558 0.0357485 0
0.85 0 0
0.710547 0.227526 0
0.663415 0.224132 0
0.686826 0.263198 0
0.964263 0.272229 0
1 0.25 0
0.40098 0.934133 0
0.418811 0.96983 0
0.45 1 0
0.326813 0.219104 0
0.290186 0.248584 0
0.336805 0.267084 0
0.243052 0.23639 0
0.253043 0.28437 0
0.224721 0.582616 0
0.220205 0.636726 0
0.252082 0.610769 0
0.92046 0.10812 0
0.954252 0.125762 0
0.66166 0.32475 0
0.662288 0.283458 0
0.639066 0.301096 0
0.949255 0.366653 0
0.949255 0.316653 0
1 0.35 0
0.291542 0.723459 0
0.27993 0.682005 0
0.259178 0.706333 0
0.394055 0.89916 0
0.430698 0.904686 0
0.531524 0.28422 0
0.492115 0.297124 0
0.522791 0.316692 0
0.040646 0.122453 0
0.040646 0.172453 0
0 0.15 0
1 0.15 0
0.151681 0.262718 0
0.192069 0.222774 0
0.137841 0.213317 0
0.558428 0.264284 0
0.600947 0.281797 0
0.597175 0.242291 0
0.508973 0.20957 0
0.551071 0.183459 0
0.505387 0.168251 0
0.118847 0.906605 0
0.088766 0.958276 0
0.3123 0.881198 0
0.329373 0.835836 0
0.290155 0.856751 0
0.18042 0.709353 0
0.223182 0.704287 0
0.204805 0.669945 0
0.114037 0.464054 0
0.157422 0.486991 0
0.15195 0.441504 0
0.279361 0.505346 0
0.248729 0.459236 0
0.225966 0.51055 0
0.423399 0.442555 0
0.448567 0.488847 0
0.892767 0.068106 0
0.65 0 0
0.901255 0.379406 0
0.952 0.412754 0
0.858877 0.146767 0
0.822019 0.189153 0
0.871644 0.19391 0
0.14825 0.528535 0
0.186162 0.505985 0
0.178931 0.775801 0
0.161815 0.746482 0
0.141948 0.778588 0
0.29813 0.591225 0
0.34111 0.580516 0
0.299577 0.545951 0
0.913519 0.288882 0
0.881657 0.240376 0
0.866648 0.2848 0
0.664882 0.143162 0
0.708469 0.158169 0
0.686215 0.112871 0
0.768308 0.293401 0
0.818722 0.278253 0
0.784372 0.251443 0
0.407693 0.254387 0
0.452622 0.232766 0
0.418361 0.215983 0
0.559238 0.352343 0
0.519829 0.365247 0
0.269689 0.146391 0
0.323596 0.167402 0
0.313091 0.113188 0
0.367897 0.0645775 0
0.396163 0.0349765 0
0.220028 0.321352 0
0.17678 0.307097 0
0.190899 0.356272 0
0.584604 0.203855 0
0.581018 0.162535 0
0.250656 0.860137 0
0.267729 0.814776 0
0.359821 0.770477 0
0.31886 0.781193 0
0.348189 0.800674 0
0.124404 0.679582 0
0.141706 0.637726 0
0.104067 0.642297 0
0.216622 0.899385 0
0.203213 0.085617 0
0.162735 0.126214 0
0.218707 0.132775 0
0.0893725 0.199083 0
0.129761 0.159139 0
0.121022 0.819921 0
0.103905 0.790602 0
0.193647 0.813034 0
0.159614 0.852282 0
0.194196 0.85741 0
0.650843 0.185696 0
0.628589 0.140398 0
0.504917 0.076007 0
0.50366 0.114367 0
0.548742 0.103779 0
0.378761 0.595487 0
0.380208 0.550214 0
0.466523 0.368506 0
0.783675 0.0347525 0
0.75 0 0
0.595056 0.120002 0
0.20263 0.384402 0
0.183224 0.431359 0
0.214741 0.417484 0
0.084015 0.29788 0
0.109114 0.342258 0
0.122552 0.29764 0
0.370334 0.82512 0
0.387646 0.864998 0
0.406461 0.829835 0
0.355164 0.351116 0
0.345461 0.389393 0
0.38124 0.369312 0
0.177444 0.641792 0
0.157107 0.604507 0
0.0286115 0.437949 0
0.0286115 0.487949 0
0 0.45 0
0.184917 0.578051 0
0.216794 0.552094 0
0.310754 0.412615 0
0.268135 0.41228 0
0.13984 0.408422 0
0.159382 0.370147 0
0.128108 0.380293 0
0.784378 0.167398 0
0.797145 0.21454 0
0.649424 0.382815 0
0.693196 0.390508 0
0.682209 0.350082 0
0.471401 0.267911 0
0.482069 0.229507 0
0.600319 0.323089 0
0.597356 0.371644 0
0.370215 0.185901 0
0.420304 0.369225 0
0.410601 0.407502 0
0.5 0.65 0
0.293615 0.645334 0
0.325979 0.66246 0
0.342624 0.703635 0
0.356309 0.666965 0
0.24951 0.782974 0
0.289009 0.779588 0
0.810542 0.362514 0
0.76432 0.338993 0
0.772204 0.381296 0
0.70942 0.286852 0
0.705431 0.332443 0
0.729969 0.312184 0
0.831184 0.106754 0
0.88081 0.111511 0
0.700748 0.430301 0
0.733534 0.397568 0
0.850584 0.326758 0
0.229212 0.186988 0
0.407496 0.52144 0
0.369845 0.506468 0
0.413594 0.760165 0
0.405497 0.719256 0
0.381051 0.749049 0
0.444574 0.794979 0
0.383872 0.640216 0
0.400517 0.681391 0
0.355233 0.0967005 0
0.42608 0.078274 0
0.379662 0.102076 0
0.055907 0.589708 0
0.0873405 0.613876 0
0.072862 0.718619 0
0.0918955 0.751177 0
0.105798 0.716711 0
0.234794 0.74574 0
0.213514 0.780928 0
0.143437 0.712141 0
0.72332 0.190623 0
0.744653 0.160332 0
0.788301 0.105758 0
0.748577 0.0986915 0
0.769527 0.134944 0
0.357928 0.894445 0
0.318709 0.915359 0
0.0802555 0.874244 0
0.121571 0.864297 0
0.32234 0.494638 0
0.349629 0.465863 0
0.384335 0.442641 0
0.336831 0.43081 0
0.608343 0.412069 0
0.527752 0.244716 0
0.858468 0.369061 0
0.627123 0.221367 0
0.382188 0.284319 0
0.345561 0.3138 0
0.437163 0.330315 0
0.746731 0.229689 0
0.149179 0.573985 0
0.720027 0.100984 0
0.810234 0.070501 0
0.861213 0.415162 0
0.827831 0.478851 0
0.85 0.5 0
0.082894 0.447232 0
0.0883665 0.492719 0
0.0578625 0.514002 0
0.300642 0.749391 0
0.351723 0.729569 0
0.321394 0.725064 0
0.416449 0.301103 0
0.462668 0.300384 0
0.837044 0.431259 0
</DataArray>
</Points>
<Cells>
<DataArray  type="UInt32"  Name="connectivity"  format="ascii">
1 138 139 
14 137 139 
45 137 138 
137 138 139 
4 141 142 
27 140 142 
65 140 141 
140 141 142 
0 144 145 
23 143 145 
43 143 144 
143 144 145 
4 141 147 
65 141 146 
105 146 147 
141 146 147 
5 149 150 
31 148 150 
47 148 149 
148 149 150 
2 152 153 
32 151 153 
44 151 152 
151 152 153 
2 152 155 
15 154 155 
44 152 154 
152 154 155 
15 154 157 
44 154 156 
101 156 157 
154 156 157 
6 159 160 
43 158 160 
93 158 159 
158 159 160 
15 162 163 
16 161 163 
71 161 162 
161 162 163 
6 159 165 
7 164 165 
93 159 164 
159 164 165 
[...]
<PointData  Vectors="u"> 
<DataArray  type="Float32"  Name="u"  NumberOfComponents="3" format="ascii">
 0.000000e+00 0.000000e+00 0.000000e+00
 0.000000e+00 0.000000e+00 0.000000e+00
 0.000000e+00 0.000000e+00 0.000000e+00
 0.000000e+00 0.000000e+00 0.000000e+00
 0.000000e+00 0.000000e+00 0.000000e+00
 0.000000e+00 0.000000e+00 0.000000e+00
 0.000000e+00 0.000000e+00 0.000000e+00
 0.000000e+00 0.000000e+00 0.000000e+00
 0.000000e+00 0.000000e+00 0.000000e+00
 0.000000e+00 0.000000e+00 0.000000e+00
 0.000000e+00 0.000000e+00 0.000000e+00
 0.000000e+00 0.000000e+00 0.000000e+00
 0.000000e+00 0.000000e+00 0.000000e+00
 0.000000e+00 0.000000e+00 0.000000e+00
 0.000000e+00 0.000000e+00 0.000000e+00
 0.000000e+00 0.000000e+00 0.000000e+00
 0.000000e+00 0.000000e+00 0.000000e+00
 0.000000e+00 0.000000e+00 0.000000e+00
 0.000000e+00 0.000000e+00 0.000000e+00
 0.000000e+00 0.000000e+00 0.000000e+00
 0.000000e+00 0.000000e+00 0.000000e+00
 0.000000e+00 0.000000e+00 0.000000e+00
 0.000000e+00 0.000000e+00 0.000000e+00
 0.000000e+00 0.000000e+00 0.000000e+00
 0.000000e+00 0.000000e+00 0.000000e+00
 0.000000e+00 0.000000e+00 0.000000e+00
 0.000000e+00 0.000000e+00 0.000000e+00
 0.000000e+00 0.000000e+00 0.000000e+00
 0.000000e+00 0.000000e+00 0.000000e+00
 0.000000e+00 0.000000e+00 0.000000e+00
 0.000000e+00 0.000000e+00 0.000000e+00
 0.000000e+00 0.000000e+00 0.000000e+00
 8.748820e-04 -3.131494e-01 0.000000e+00
 1.702093e-03 -3.708638e-01 0.000000e+00
 1.770820e-03 -3.767852e-01 0.000000e+00
 1.003558e-03 -3.259988e-01 0.000000e+00
 3.207225e-01 -5.371267e-04 0.000000e+00
 3.741529e-01 -1.278695e-03 0.000000e+00
 3.738599e-01 -1.160413e-03 0.000000e+00
 3.181120e-01 -3.313889e-04 0.000000e+00
 1.807715e-01 -1.889290e-01 0.000000e+00
 3.477060e-02 -3.697677e-01 0.000000e+00
 3.800108e-01 -3.550103e-02 0.000000e+00
 1.210101e-02 -1.228592e-02 0.000000e+00
 3.353935e-04 -1.965626e-01 0.000000e+00
 2.588072e-01 -1.935138e-04 0.000000e+00
 1.972116e-01 6.083321e-06 0.000000e+00
 8.069240e-04 -2.584772e-01 0.000000e+00
 7.434244e-02 -2.898004e-01 0.000000e+00
 3.617496e-01 -1.644657e-01 0.000000e+00
 3.771951e-01 -4.074408e-03 0.000000e+00
 1.080541e-02 -3.779952e-01 0.000000e+00
 8.617267e-02 -8.888617e-02 0.000000e+00
 2.111005e-01 -5.852777e-02 0.000000e+00
 3.113635e-01 -3.502284e-02 0.000000e+00
 9.661194e-03 -3.286215e-01 0.000000e+00
 3.456523e-03 -3.581276e-01 0.000000e+00
 1.064481e-01 -3.852902e-01 0.000000e+00
 6.229337e-02 -1.972944e-01 0.000000e+00
 3.396671e-01 -6.978884e-03 0.000000e+00
 3.651831e-01 -5.865601e-03 0.000000e+00
 2.219651e-02 -2.999916e-01 0.000000e+00
 2.064339e-02 -3.679628e-01 0.000000e+00
 3.603863e-01 -1.309388e-03 0.000000e+00
 3.671914e-01 -9.955979e-04 0.000000e+00
 3.770444e-01 -8.141899e-02 0.000000e+00
 1.229622e-01 -3.616237e-02 0.000000e+00
 2.930742e-01 -8.087227e-02 0.000000e+00
 2.276610e-03 -2.908940e-01 0.000000e+00
 1.002878e-02 -3.735161e-01 0.000000e+00
 2.486954e-02 -5.106417e-02 0.000000e+00
 2.851632e-03 -2.838689e-01 0.000000e+00
 2.287002e-01 -9.671441e-03 0.000000e+00
 2.322368e-01 -3.062099e-01 0.000000e+00
 2.992884e-01 -1.009540e-02 0.000000e+00
 2.291738e-01 -2.349244e-02 0.000000e+00
 3.442018e-02 -2.177222e-01 0.000000e+00
 4.330690e-03 -3.778157e-01 0.000000e+00
 7.119091e-02 -3.535297e-01 0.000000e+00
 3.151679e-02 -2.685098e-01 0.000000e+00
 1.189701e-01 -2.410563e-01 0.000000e+00
 3.426851e-02 -1.181431e-01 0.000000e+00
 3.874077e-01 -2.998945e-02 0.000000e+00
 3.505675e-01 -6.351815e-02 0.000000e+00
 2.393213e-01 -1.330489e-01 0.000000e+00
 4.988816e-02 -3.869069e-01 0.000000e+00
 1.931910e-02 -3.775955e-01 0.000000e+00
 3.805757e-01 -1.240610e-02 0.000000e+00
 3.772975e-01 -1.620319e-03 0.000000e+00
 2.726912e-01 -4.893148e-04 0.000000e+00
 3.134402e-01 1.613105e-04 0.000000e+00
 1.619279e-01 -1.114624e-01 0.000000e+00
 6.639796e-02 -3.747595e-01 0.000000e+00
 5.200361e-02 -2.670023e-02 0.000000e+00
 8.319857e-03 -3.456184e-01 0.000000e+00
 1.858226e-02 -3.138209e-01 0.000000e+00
 1.398982e-01 -1.642709e-02 0.000000e+00
 8.728507e-03 -2.760789e-01 0.000000e+00
 2.159869e-02 -3.427964e-01 0.000000e+00
 3.533640e-01 -3.474385e-03 0.000000e+00
 2.339204e-03 -3.586471e-01 0.000000e+00
 1.137353e-03 -2.774719e-01 0.000000e+00
 8.188342e-03 -3.544791e-01 0.000000e+00
 1.426339e-01 -3.247738e-01 0.000000e+00
 1.064803e-01 -1.628162e-01 0.000000e+00
 3.336368e-01 -2.804486e-01 0.000000e+00
 2.909984e-01 -2.576394e-03 0.000000e+00
 3.868757e-01 -8.222916e-02 0.000000e+00
 3.737282e-01 -3.579735e-03 0.000000e+00
 3.509309e-01 -3.208383e-02 0.000000e+00
 2.689988e-01 -2.170609e-01 0.000000e+00
 3.640564e-01 -1.772276e-02 0.000000e+00
 1.893469e-02 -1.410355e-01 0.000000e+00
 2.514587e-01 8.895355e-04 0.000000e+00
 4.753977e-02 -3.186224e-01 0.000000e+00
 2.720251e-01 -3.270042e-03 0.000000e+00
 3.893038e-02 -3.432191e-01 0.000000e+00
 7.176494e-02 -2.420201e-01 0.000000e+00
 3.105007e-03 -2.291461e-01 0.000000e+00
 2.773328e-01 1.356238e-04 0.000000e+00
 6.790655e-03 -2.721225e-01 0.000000e+00
 1.058680e-02 -1.716401e-01 0.000000e+00
 8.678867e-03 -1.959147e-01 0.000000e+00
 1.741416e-02 -3.778813e-01 0.000000e+00
 2.825291e-02 -3.813845e-01 0.000000e+00
 3.848546e-01 -1.941508e-02 0.000000e+00
 5.396033e-03 -1.993967e-01 0.000000e+00
 1.680653e-02 -3.640866e-01 0.000000e+00
 1.777305e-01 -1.989248e-02 0.000000e+00
 5.594360e-03 -3.667636e-01 0.000000e+00
 1.927330e-01 -3.855271e-01 0.000000e+00
 1.899997e-01 -2.589361e-01 0.000000e+00
 2.660227e-01 -1.505751e-03 0.000000e+00
 3.043912e-01 -1.423660e-01 0.000000e+00
 3.698678e-01 -8.661192e-03 0.000000e+00
 1.927981e-01 2.929832e-04 0.000000e+00
 3.435668e-01 -1.082660e-01 0.000000e+00
 1.600170e-01 -2.121727e-05 0.000000e+00
 1.602800e-01 -6.357961e-05 0.000000e+00
 0.000000e+00 0.000000e+00 0.000000e+00
 2.431305e-01 -1.963558e-02 0.000000e+00
 3.023238e-01 -1.246210e-01 0.000000e+00
 0.000000e+00 0.000000e+00 0.000000e+00
 4.509064e-03 -1.009914e-02 0.000000e+00
 1.814065e-03 -1.793492e-03 0.000000e+00
 0.000000e+00 0.000000e+00 0.000000e+00
 3.832764e-01 -1.896825e-01 0.000000e+00
 3.038055e-01 -2.936531e-01 0.000000e+00
 3.515889e-04 -1.587964e-01 0.000000e+00
 2.780643e-04 -1.582613e-01 0.000000e+00
 0.000000e+00 0.000000e+00 0.000000e+00
 5.825456e-04 -2.677142e-01 0.000000e+00
 1.402242e-04 -1.142314e-01 0.000000e+00
 3.556338e-04 -2.139839e-01 0.000000e+00
 1.564340e-04 -1.136304e-01 0.000000e+00
 0.000000e+00 0.000000e+00 0.000000e+00
 6.385077e-04 -2.423019e-01 0.000000e+00
 4.429171e-04 -1.779049e-01 0.000000e+00
 2.934428e-02 -2.012366e-02 0.000000e+00
 2.517464e-02 -8.216817e-03 0.000000e+00
 1.039912e-02 -4.778448e-03 0.000000e+00
 1.104129e-03 -1.827116e-01 0.000000e+00
 7.304749e-04 -1.844789e-01 0.000000e+00
 0.000000e+00 0.000000e+00 0.000000e+00
 4.330648e-02 -9.164501e-03 0.000000e+00
 0.000000e+00 0.000000e+00 0.000000e+00
 0.000000e+00 0.000000e+00 0.000000e+00
 1.368003e-01 -2.569030e-02 0.000000e+00
 8.073193e-02 -5.563754e-03 0.000000e+00
 9.273515e-02 -1.170074e-02 0.000000e+00
 3.114482e-03 -2.591011e-01 0.000000e+00
 8.914609e-04 -1.393390e-01 0.000000e+00
 1.270232e-03 -1.364670e-01 0.000000e+00
 0.000000e+00 0.000000e+00 0.000000e+00
 4.052098e-02 -4.172083e-02 0.000000e+00
 1.917660e-02 -2.929854e-02 0.000000e+00
 7.171600e-02 -1.198190e-02 0.000000e+00
 0.000000e+00 0.000000e+00 0.000000e+00
 9.441107e-02 -5.055809e-03 0.000000e+00
 0.000000e+00 0.000000e+00 0.000000e+00
 1.594286e-01 -6.890371e-03 0.000000e+00
 1.446786e-01 -8.174771e-03 0.000000e+00
 0.000000e+00 0.000000e+00 0.000000e+00
 2.709594e-01 -5.020102e-02 0.000000e+00
 2.274344e-01 -3.977928e-02 0.000000e+00
 2.528771e-01 -7.209232e-02 0.000000e+00
 1.476455e-01 -2.455360e-03 0.000000e+00
 1.398282e-01 -3.460450e-03 0.000000e+00
 0.000000e+00 0.000000e+00 0.000000e+00
 2.678614e-01 -1.053978e-02 0.000000e+00
 2.027452e-01 -3.539831e-03 0.000000e+00
 2.419828e-01 6.535509e-05 0.000000e+00
 1.759233e-01 1.401796e-04 0.000000e+00
 1.138063e-01 5.063649e-05 0.000000e+00
 7.273531e-03 -2.417920e-01 0.000000e+00
 1.513945e-03 -1.211291e-01 0.000000e+00
 2.811863e-03 -1.810226e-01 0.000000e+00
 1.910245e-03 -1.161782e-01 0.000000e+00
 0.000000e+00 0.000000e+00 0.000000e+00
 1.525967e-01 -2.504534e-01 0.000000e+00
 1.872261e-01 -2.227735e-01 0.000000e+00
 1.499328e-01 -2.176736e-01 0.000000e+00
 2.442295e-02 -2.615715e-01 0.000000e+00
 7.961291e-02 -3.125880e-01 0.000000e+00
 0.000000e+00 0.000000e+00 0.000000e+00
 3.453708e-02 -3.426257e-01 0.000000e+00
 9.753507e-03 -2.126859e-01 0.000000e+00
 1.109061e-02 -2.917214e-01 0.000000e+00
 2.852085e-03 -1.699871e-01 0.000000e+00
 5.217114e-03 -1.973592e-01 0.000000e+00
 1.811450e-03 -1.650071e-01 0.000000e+00
 0.000000e+00 0.000000e+00 0.000000e+00
 2.121846e-03 -3.659024e-01 0.000000e+00
 1.564592e-03 -3.421893e-01 0.000000e+00
 1.352175e-03 -3.545916e-01 0.000000e+00
 2.403025e-01 2.479338e-04 0.000000e+00
 1.107175e-01 1.339186e-04 0.000000e+00
 2.711966e-01 -1.440369e-04 0.000000e+00
 1.139811e-01 -1.785830e-05 0.000000e+00
 2.170568e-01 -1.181952e-04 0.000000e+00
 2.883738e-01 -6.022901e-03 0.000000e+00
 1.753215e-01 -8.936071e-04 0.000000e+00
 2.078527e-01 -2.288473e-03 0.000000e+00
 2.868057e-01 5.247059e-04 0.000000e+00
 1.516968e-01 6.142996e-04 0.000000e+00
 2.095711e-01 5.508282e-04 0.000000e+00
 2.693554e-01 -2.247693e-03 0.000000e+00
 1.663102e-01 -6.123059e-04 0.000000e+00
 0.000000e+00 0.000000e+00 0.000000e+00
 1.508528e-01 9.214314e-04 0.000000e+00
 0.000000e+00 0.000000e+00 0.000000e+00
 3.069164e-03 -1.126490e-01 0.000000e+00
 2.546312e-03 -1.201859e-01 0.000000e+00
 0.000000e+00 0.000000e+00 0.000000e+00
 1.856484e-02 -2.430776e-01 0.000000e+00
 1.580295e-02 -2.580096e-01 0.000000e+00
 2.685068e-02 -2.857516e-01 0.000000e+00
 6.732886e-04 -1.855800e-01 0.000000e+00
 1.208595e-03 -1.878016e-01 0.000000e+00
 0.000000e+00 0.000000e+00 0.000000e+00
 2.679874e-02 -1.805354e-01 0.000000e+00
 5.932712e-03 -9.385731e-02 0.000000e+00
 1.131680e-02 -1.437446e-01 0.000000e+00
 3.734983e-01 -1.641153e-03 0.000000e+00
 3.763284e-01 -1.379306e-03 0.000000e+00
 3.692532e-01 -1.227213e-03 0.000000e+00
 1.797399e-01 1.166177e-03 0.000000e+00
 1.762321e-01 1.308248e-03 0.000000e+00
 0.000000e+00 0.000000e+00 0.000000e+00
 6.175905e-03 -7.991896e-02 0.000000e+00
 0.000000e+00 0.000000e+00 0.000000e+00
 1.090998e-02 -6.668411e-02 0.000000e+00
 1.068143e-02 -8.543031e-02 0.000000e+00
 0.000000e+00 0.000000e+00 0.000000e+00
 2.387578e-03 -3.775909e-01 0.000000e+00
 2.413969e-03 -3.758259e-01 0.000000e+00
 1.849561e-03 -3.770239e-01 0.000000e+00
 1.384033e-03 -3.451295e-01 0.000000e+00
 1.884482e-03 -3.714901e-01 0.000000e+00
 1.465407e-03 -3.653038e-01 0.000000e+00
 2.944317e-01 -3.665925e-04 0.000000e+00
 2.208445e-01 -1.880132e-04 0.000000e+00
 1.723813e-01 -4.167098e-05 0.000000e+00
 1.720687e-01 -1.295803e-04 0.000000e+00
 0.000000e+00 0.000000e+00 0.000000e+00
 3.753621e-01 -1.617631e-02 0.000000e+00
 3.720092e-01 -2.591526e-02 0.000000e+00
 3.813955e-01 -2.150177e-02 0.000000e+00
 3.766998e-01 -1.293287e-03 0.000000e+00
 3.772258e-01 -1.356152e-03 0.000000e+00
 1.562641e-03 -3.254384e-01 0.000000e+00
 8.807121e-04 -2.976243e-01 0.000000e+00
 4.666743e-04 -2.243292e-01 0.000000e+00
 1.996601e-01 -1.234883e-01 0.000000e+00
 1.721892e-01 -1.488537e-01 0.000000e+00
 2.120062e-01 -1.623868e-01 0.000000e+00
 1.349244e-01 -1.386455e-01 0.000000e+00
 1.422349e-01 -1.765509e-01 0.000000e+00
 5.316461e-02 -3.487712e-01 0.000000e+00
 3.795963e-02 -3.582518e-01 0.000000e+00
 5.052740e-02 -3.644013e-01 0.000000e+00
 3.293147e-01 -6.690966e-04 0.000000e+00
 3.457696e-01 -7.646426e-04 0.000000e+00
 3.865431e-01 -2.421077e-02 0.000000e+00
 3.849297e-01 -2.774317e-02 0.000000e+00
 3.888474e-01 -3.537932e-02 0.000000e+00
 3.502384e-01 -4.878913e-04 0.000000e+00
 3.710863e-01 -1.028399e-03 0.000000e+00
 3.594593e-01 -7.532008e-04 0.000000e+00
 2.364626e-02 -3.795742e-01 0.000000e+00
 3.251287e-02 -3.779210e-01 0.000000e+00
 2.627649e-02 -3.749263e-01 0.000000e+00
 2.540572e-03 -3.345769e-01 0.000000e+00
 1.345521e-03 -2.753860e-01 0.000000e+00
 3.684617e-01 -9.903566e-02 0.000000e+00
 3.533368e-01 -1.339436e-01 0.000000e+00
 3.802253e-01 -1.195520e-01 0.000000e+00
 7.545730e-03 -2.403896e-02 0.000000e+00
 8.098702e-03 -4.022736e-02 0.000000e+00
 0.000000e+00 0.000000e+00 0.000000e+00
 3.605046e-01 -9.510247e-04 0.000000e+00
 6.846769e-02 -1.461080e-01 0.000000e+00
 9.701964e-02 -1.251998e-01 0.000000e+00
 5.962385e-02 -1.095296e-01 0.000000e+00
 3.687685e-01 -7.474022e-02 0.000000e+00
 3.840514e-01 -5.420321e-02 0.000000e+00
 3.693018e-01 -5.030157e-02 0.000000e+00
 3.245713e-01 -7.479452e-02 0.000000e+00
 3.324031e-01 -4.966460e-02 0.000000e+00
 3.061490e-01 -5.547984e-02 0.000000e+00
 2.208550e-03 -3.321045e-01 0.000000e+00
 9.159119e-04 -2.972322e-01 0.000000e+00
 5.242599e-03 -3.762471e-01 0.000000e+00
 7.983622e-03 -3.743758e-01 0.000000e+00
 7.165242e-03 -3.780485e-01 0.000000e+00
 1.955355e-02 -3.551585e-01 0.000000e+00
 2.444150e-02 -3.671835e-01 0.000000e+00
 2.860912e-02 -3.584759e-01 0.000000e+00
 3.380519e-02 -2.443866e-01 0.000000e+00
 5.072583e-02 -2.840598e-01 0.000000e+00
 5.482070e-02 -2.586839e-01 0.000000e+00
 1.026256e-01 -3.439357e-01 0.000000e+00
 1.058594e-01 -3.065010e-01 0.000000e+00
 7.691849e-02 -3.241803e-01 0.000000e+00
 2.677623e-01 -3.494366e-01 0.000000e+00
 1.989436e-01 -3.719005e-01 0.000000e+00
 2.661474e-01 -2.597591e-04 0.000000e+00
 0.000000e+00 0.000000e+00 0.000000e+00
 3.408345e-01 -2.910292e-04 0.000000e+00
 3.000813e-01 -8.297517e-05 0.000000e+00
 3.573064e-01 -2.041859e-03 0.000000e+00
 3.707558e-01 -4.315528e-03 0.000000e+00
 3.724360e-01 -2.519366e-03 0.000000e+00
 4.034379e-02 -2.966855e-01 0.000000e+00
 6.019633e-02 -3.064501e-01 0.000000e+00
 1.194443e-02 -3.603068e-01 0.000000e+00
 1.344944e-02 -3.513122e-01 0.000000e+00
 9.110119e-03 -3.435091e-01 0.000000e+00
 6.458895e-02 -3.766803e-01 0.000000e+00
 7.374234e-02 -3.890184e-01 0.000000e+00
 8.875357e-02 -3.687262e-01 0.000000e+00
 3.758729e-01 -1.497748e-03 0.000000e+00
 3.772818e-01 -2.468825e-03 0.000000e+00
 3.768348e-01 -2.386432e-03 0.000000e+00
 3.418949e-01 -1.526466e-02 0.000000e+00
 3.549796e-01 -1.177561e-02 0.000000e+00
 3.224551e-01 -8.698882e-03 0.000000e+00
 3.792205e-01 -7.238716e-03 0.000000e+00
 3.781192e-01 -4.279972e-03 0.000000e+00
 3.785149e-01 -7.072633e-03 0.000000e+00
 2.713646e-01 -1.397384e-01 0.000000e+00
 2.992755e-01 -1.093234e-01 0.000000e+00
 2.693407e-01 -1.071322e-01 0.000000e+00
 3.991884e-01 -9.087778e-02 0.000000e+00
 3.946068e-01 -1.437435e-01 0.000000e+00
 1.478693e-01 -7.210052e-02 0.000000e+00
 1.899738e-01 -8.476346e-02 0.000000e+00
 1.673067e-01 -4.823080e-02 0.000000e+00
 1.588943e-01 -1.832966e-02 0.000000e+00
 1.163101e-01 -6.208453e-03 0.000000e+00
 1.144187e-01 -2.014330e-01 0.000000e+00
 8.375880e-02 -1.829970e-01 0.000000e+00
 8.985386e-02 -2.204787e-01 0.000000e+00
 3.516318e-01 -4.582729e-02 0.000000e+00
 3.333118e-01 -3.474753e-02 0.000000e+00
 6.918787e-03 -3.766107e-01 0.000000e+00
 1.084804e-02 -3.777231e-01 0.000000e+00
 1.285439e-02 -3.678658e-01 0.000000e+00
 1.386545e-02 -3.779697e-01 0.000000e+00
 1.033217e-02 -3.706011e-01 0.000000e+00
 1.505013e-02 -3.192055e-01 0.000000e+00
 2.262312e-02 -3.244345e-01 0.000000e+00
 1.445797e-02 -2.920960e-01 0.000000e+00
 4.210129e-03 -3.730650e-01 0.000000e+00
 8.594973e-02 -3.215382e-02 0.000000e+00
 7.174352e-02 -5.586988e-02 0.000000e+00
 1.098287e-01 -6.278319e-02 0.000000e+00
 2.992372e-02 -8.323494e-02 0.000000e+00
 5.318946e-02 -7.276304e-02 0.000000e+00
 5.405253e-03 -3.308819e-01 0.000000e+00
 5.593500e-03 -3.113173e-01 0.000000e+00
 9.400418e-03 -3.664951e-01 0.000000e+00
 5.526032e-03 -3.566210e-01 0.000000e+00
 6.250210e-03 -3.681332e-01 0.000000e+00
 3.586580e-01 -2.427973e-02 0.000000e+00
 3.337198e-01 -1.998627e-02 0.000000e+00
 2.331537e-01 -1.579105e-02 0.000000e+00
 2.751937e-01 -3.108698e-02 0.000000e+00
 2.827263e-01 -2.124205e-02 0.000000e+00
 5.933557e-02 -3.887198e-01 0.000000e+00
 9.498552e-02 -3.969630e-01 0.000000e+00
 3.575272e-01 -2.173191e-01 0.000000e+00
 1.679016e-01 -2.601096e-04 0.000000e+00
 0.000000e+00 0.000000e+00 0.000000e+00
 3.113224e-01 -2.013074e-02 0.000000e+00
 9.393574e-02 -2.432622e-01 0.000000e+00
 7.390565e-02 -2.663218e-01 0.000000e+00
 9.667301e-02 -2.688345e-01 0.000000e+00
 2.617691e-02 -1.331538e-01 0.000000e+00
 3.880179e-02 -1.769082e-01 0.000000e+00
 4.865256e-02 -1.583073e-01 0.000000e+00
 7.051459e-03 -3.583039e-01 0.000000e+00
 4.024972e-03 -3.424558e-01 0.000000e+00
 4.540132e-03 -3.218743e-01 0.000000e+00
 2.294452e-01 -2.422153e-01 0.000000e+00
 2.111571e-01 -2.817932e-01 0.000000e+00
 2.567961e-01 -2.618816e-01 0.000000e+00
 2.932186e-02 -3.439709e-01 0.000000e+00
 3.099514e-02 -3.259937e-01 0.000000e+00
 3.872328e-03 -9.421183e-02 0.000000e+00
 3.336017e-03 -1.037877e-01 0.000000e+00
 0.000000e+00 0.000000e+00 0.000000e+00
 4.356134e-02 -3.320058e-01 0.000000e+00
 6.001705e-02 -3.364528e-01 0.000000e+00
 1.687670e-01 -2.947204e-01 0.000000e+00
 1.344599e-01 -2.813370e-01 0.000000e+00
 5.238042e-02 -2.338813e-01 0.000000e+00
 6.772250e-02 -2.200382e-01 0.000000e+00
 4.760228e-02 -2.110047e-01 0.000000e+00
 3.636045e-01 -5.709042e-03 0.000000e+00
 3.748761e-01 -6.097725e-03 0.000000e+00
 3.595669e-01 -1.508969e-02 0.000000e+00
 3.409995e-01 -4.644457e-03 0.000000e+00
 3.757722e-01 -1.377614e-02 0.000000e+00
 3.258087e-01 -1.261757e-01 0.000000e+00
 3.176109e-01 -9.593562e-02 0.000000e+00
 3.944238e-01 -5.505378e-02 0.000000e+00
 3.868158e-01 -4.846002e-02 0.000000e+00
 2.275988e-01 -9.373087e-02 0.000000e+00
 3.039382e-01 -2.522804e-01 0.000000e+00
 2.802660e-01 -3.057588e-01 0.000000e+00
 0.000000e+00 0.000000e+00 0.000000e+00
 4.347453e-02 -3.792200e-01 0.000000e+00
 3.722314e-02 -3.835483e-01 0.000000e+00
 2.527990e-02 -3.793819e-01 0.000000e+00
 3.285168e-02 -3.808772e-01 0.000000e+00
 1.421291e-02 -3.756714e-01 0.000000e+00
 1.475559e-02 -3.788419e-01 0.000000e+00
 3.559953e-01 -1.315045e-03 0.000000e+00
 3.705000e-01 -4.591178e-03 0.000000e+00
 3.430468e-01 -1.172013e-03 0.000000e+00
 3.827713e-01 -1.548618e-02 0.000000e+00
 3.788647e-01 -1.186884e-02 0.000000e+00
 3.799852e-01 -1.035955e-02 0.000000e+00
 3.261652e-01 -1.614638e-03 0.000000e+00
 3.322901e-01 -9.809644e-04 0.000000e+00
 2.701794e-01 4.223862e-04 0.000000e+00
 3.270561e-01 -1.195026e-03 0.000000e+00
 3.702854e-01 -1.738010e-03 0.000000e+00
 1.231947e-01 -1.012959e-01 0.000000e+00
 1.284508e-01 -3.997838e-01 0.000000e+00
 1.417137e-01 -3.894831e-01 0.000000e+00
 8.054502e-03 -3.176093e-01 0.000000e+00
 1.349240e-02 -3.358495e-01 0.000000e+00
 1.330157e-02 -3.570206e-01 0.000000e+00
 3.141665e-03 -2.469841e-01 0.000000e+00
 3.646672e-02 -3.747856e-01 0.000000e+00
 2.094625e-02 -3.498322e-01 0.000000e+00
 1.835982e-01 -3.592241e-02 0.000000e+00
 2.036780e-01 -2.202379e-02 0.000000e+00
 2.022596e-01 -3.751469e-02 0.000000e+00
 6.956849e-03 -1.986931e-01 0.000000e+00
 1.268886e-02 -2.636677e-01 0.000000e+00
 5.391426e-03 -2.562578e-01 0.000000e+00
 6.218785e-03 -2.921058e-01 0.000000e+00
 9.616121e-03 -3.062203e-01 0.000000e+00
 1.866061e-02 -3.722553e-01 0.000000e+00
 1.331526e-02 -3.697167e-01 0.000000e+00
 1.476377e-02 -3.378263e-01 0.000000e+00
 3.675356e-01 -1.253240e-02 0.000000e+00
 3.588471e-01 -8.309732e-03 0.000000e+00
 3.234168e-01 -2.677576e-03 0.000000e+00
 3.129438e-01 -3.676712e-03 0.000000e+00
 3.473115e-01 -4.998772e-03 0.000000e+00
 3.685649e-03 -3.628450e-01 0.000000e+00
 3.402599e-03 -3.748735e-01 0.000000e+00
 1.824777e-03 -2.810963e-01 0.000000e+00
 3.575544e-03 -3.332908e-01 0.000000e+00
 1.302476e-01 -3.602869e-01 0.000000e+00
 1.701949e-01 -3.560386e-01 0.000000e+00
 2.213000e-01 -3.484012e-01 0.000000e+00
 1.842249e-01 -3.203530e-01 0.000000e+00
 3.325078e-01 -2.297735e-02 0.000000e+00
 3.483376e-01 -8.383824e-02 0.000000e+00
 3.498950e-01 -5.609152e-04 0.000000e+00
 3.670403e-01 -3.585653e-02 0.000000e+00
 2.544426e-01 -1.722452e-01 0.000000e+00