<?xml version="1.0"?>
<VTKFile type="UnstructuredGrid"  version="0.1"  >
<UnstructuredGrid>
<Piece  NumberOfPoints="505" NumberOfCells="928">
<Points>
<DataArray  type="Float32"  NumberOfComponents="3"  format="ascii">
0 0 0
1 0 0
0 1 0
1 0.5 0
0.5 0.5 0
0.5 1 0
0.1 0 0
0.2 0 0
0.3 0 0
0.4 0 0
0.5 0 0
0.6 0 0
0.7 0 0
0.8 0 0
0.9 0 0
0 0.9 0
0 0.8 0
0 0.7 0
0 0.6 0
0 0.5 0
0 0.4 0
0 0.3 0
0 0.2 0
0 0.1 0
0.9 0.5 0
0.8 0.5 0
0.7 0.5 0
0.6 0.5 0
0.5 0.6 0
0.5 0.7 0
0.5 0.8 0
0.5 0.9 0
0.1 1 0
0.2 1 0
0.3 1 0
0.4 1 0
1 0.1 0
1 0.2 0
1 0.3 0
1 0.4 0
0.300178 0.296564 0
0.247566 0.664879 0
0.639694 0.259804 0
0.06564 0.06472 0
0.04439 0.954144 0
0.932418 0.064715 0
0.951013 0.456419 0
0.437622 0.939659 0
0.195334 0.464441 0
0.483382 0.329596 0
0.834786 0.236295 0
0.307228 0.81139 0
0.178229 0.173372 0
0.366998 0.134199 0
0.547485 0.14214 0
0.124832 0.74927 0
0.160163 0.896658 0
0.342556 0.535243 0
0.147651 0.342018 0
0.729803 0.127878 0
0.725981 0.357775 0
0.121369 0.600441 0
0.372954 0.70814 0
0.908503 0.151525 0
0.89851 0.333305 0
0.556275 0.400898 0
0.259184 0.092178 0
0.46329 0.194362 0
0.423773 0.869712 0
0.22823 0.818162 0
0.081292 0.144905 0
0.082979 0.831935 0
0.549999 0.065419 0
0.371537 0.407588 0
0.642628 0.097865 0
0.459835 0.086595 0
0.108565 0.418567 0
0.273082 0.902112 0
0.256598 0.556659 0
0.11951 0.509541 0
0.234147 0.370527 0
0.097453 0.253261 0
0.638438 0.342389 0
0.554656 0.224779 0
0.373432 0.237603 0
0.339663 0.62579 0
0.27079 0.747786 0
0.733958 0.266592 0
0.928527 0.244458 0
0.853116 0.071497 0
0.818426 0.404817 0
0.280194 0.200604 0
0.417859 0.565185 0
0.147241 0.079056 0
0.389149 0.789957 0
0.42808 0.654642 0
0.343469 0.059202 0
0.086765 0.684153 0
0.162043 0.675011 0
0.809252 0.14201 0
0.364337 0.928607 0
0.077532 0.916553 0
0.159064 0.807906 0
0.302124 0.454032 0
0.205909 0.272176 0
0.449664 0.407415 0
0.66041 0.423241 0
0.562201 0.303789 0
0.802658 0.320211 0
0.614551 0.182931 0
0.390944 0.331035 0
0.687136 0.18846 0
0.070577 0.342498 0
0.741087 0.437361 0
0.176989 0.547528 0
0.710251 0.07409 0
0.192845 0.608574 0
0.171114 0.398277 0
0.058959 0.753084 0
0.904 0.425508 0
0.438039 0.730373 0
0.057223 0.475897 0
0.058502 0.552106 0
0.330493 0.750997 0
0.312295 0.699131 0
0.684882 0.307111 0
0.053312 0.627311 0
0.198798 0.743695 0
0.392326 0.069953 0
0.351519 0.860283 0
0.397134 0.477694 0
0.319385 0.371198 0
0.767351 0.069505 0
0.441954 0.271171 0
0.759504 0.192785 0
0.855661 0.457701 0
0.500847 0.264652 0
0.916209 0.0323575 0
0.966209 0.0323575 0
0.95 0 0
0.578137 0.450449 0
0.528137 0.450449 0
0.55 0.5 0
0.03282 0.08236 0
0.03282 0.03236 0
0 0.05 0
0.502969 0.404157 0
0.474832 0.453708 0
0.468811 0.91983 0
0.468811 0.96983 0
0.5 0.95 0
0.072195 0.977072 0
0.022195 0.977072 0
0.05 1 0
0.022195 0.927072 0
0 0.95 0
0.060961 0.935348 0
0.038766 0.908276 0
0.106441 0.071888 0
0.123621 0.039528 0
0.08282 0.03236 0
0.0414895 0.815967 0
0.0414895 0.865968 0
0 0.85 0
0.173621 0.039528 0
0.15 0 0
0.05 0 0
0.301327 0.07569 0
0.321735 0.029601 0
0.279592 0.046089 0
0.070969 0.792509 0
0.0294795 0.776542 0
0.0294795 0.726542 0
0 0.75 0
0.114267 0.111981 0
0.073466 0.104813 0
0.229592 0.046089 0
0.25 0 0
0.371735 0.029601 0
0.35 0 0
0.479917 0.0432975 0
0.429918 0.0432975 0
0.45 0 0
0.461562 0.140479 0
0.413416 0.110397 0
0.415144 0.16428 0
0.574999 0.0327095 0
0.525 0.0327095 0
0.55 0 0
0.596313 0.081642 0
0.621314 0.0489325 0
0.927507 0.440964 0
0.902 0.462754 0
0.925507 0.47821 0
0.0700385 0.655732 0
0.026656 0.663655 0
0.0433825 0.692076 0
0.026656 0.613655 0
0 0.65 0
0.276766 0.370862 0
0.309781 0.333881 0
0.267162 0.333545 0
0.458929 0.582593 0
0.458929 0.532593 0
0.5 0.55 0
0.422969 0.609913 0
0.46404 0.627321 0
0.43306 0.692508 0
0.46902 0.715186 0
0.46404 0.677321 0
0.46902 0.765186 0
0.5 0.75 0
0.180082 0.948329 0
0.130082 0.948329 0
0.15 1 0
0.87983 0.441605 0
0.87783 0.478851 0
0.975507 0.42821 0
0.975507 0.47821 0
1 0.45 0
0.676439 0.0859775 0
0.705125 0.037045 0
0.671314 0.0489325 0
0.779756 0.421089 0
0.770544 0.46868 0
0.809213 0.452408 0
0.738801 0.0717975 0
0.733675 0.0347525 0
0.95 0.5 0
0.720544 0.46868 0
0.75 0.5 0
0.029251 0.526053 0
0.029251 0.576053 0
0 0.55 0
0.089006 0.530824 0
0.0899355 0.576273 0
0.12044 0.554991 0
0.461886 0.884856 0
0.461886 0.834856 0
0.5 0.85 0
0.089571 0.380533 0
0.0352885 0.371249 0
0.0542825 0.409284 0
0.918515 0.197991 0
0.964263 0.222229 0
0.954252 0.175762 0
0.630205 0.46162 0
0.680205 0.46162 0
0.65 0.5 0
0.0352885 0.321249 0
0 0.35 0
0.0487265 0.226631 0
0.0487265 0.276631 0
0 0.25 0
0.286541 0.951056 0
0.236541 0.951056 0
0.25 1 0
0.382169 0.964303 0
0.332168 0.964303 0
0.35 1 0
0.966209 0.0823575 0
1 0.05 0
0.876558 0.0357485 0
0.826558 0.0357485 0
0.85 0 0
0.710547 0.227526 0
0.663415 0.224132 0
0.686826 0.263198 0
0.964263 0.272229 0
1 0.25 0
0.40098 0.934133 0
0.418811 0.96983 0
0.45 1 0
0.326813 0.219104 0
0.290186 0.248584 0
0.336805 0.267084 0
0.243052 0.23639 0
0.253043 0.28437 0
0.224721 0.582616 0
0.220205 0.636726 0
0.252082 0.610769 0
0.92046 0.10812 0
0.954252 0.125762 0
0.66166 0.32475 0
0.662288 0.283458 0
0.639066 0.301096 0
0.949255 0.366653 0
0.949255 0.316653 0
1 0.35 0
0.291542 0.723459 0
0.27993 0.682005 0
0.259178 0.706333 0
0.394055 0.89916 0
0.430698 0.904686 0
0.531524 0.28422 0
0.492115 0.297124 0
0.522791 0.316692 0
0.040646 0.122453 0
0.040646 0.172453 0
0 0.15 0
1 0.15 0
0.151681 0.262718 0
0.192069 0.222774 0
0.137841 0.213317 0
0.558428 0.264284 0
0.600947 0.281797 0
0.597175 0.242291 0
0.508973 0.20957 0
0.551071 0.183459 0
0.505387 0.168251 0
0.118847 0.906605 0
0.088766 0.958276 0
0.3123 0.881198 0
0.329373 0.835836 0
0.290155 0.856751 0
0.18042 0.709353 0
0.223182 0.704287 0
0.204805 0.669945 0
0.114037 0.464054 0
0.157422 0.486991 0
0.15195 0.441504 0
0.279361 0.505346 0
0.248729 0.459236 0
0.225966 0.51055 0
0.423399 0.442555 0
0.448567 0.488847 0
0.892767 0.068106 0
0.65 0 0
0.901255 0.379406 0
0.952 0.412754 0
0.858877 0.146767 0
0.822019 0.189153 0
0.871644 0.19391 0
0.14825 0.528535 0
0.186162 0.505985 0
0.178931 0.775801 0
0.161815 0.746482 0
0.141948 0.778588 0
0.29813 0.591225 0
0.34111 0.580516 0
0.299577 0.545951 0
0.913519 0.288882 0
0.881657 0.240376 0
0.866648 0.2848 0
0.664882 0.143162 0
0.708469 0.158169 0
0.686215 0.112871 0
0.768308 0.293401 0
0.818722 0.278253 0
0.784372 0.251443 0
0.407693 0.254387 0
0.452622 0.232766 0
0.418361 0.215983 0
0.559238 0.352343 0
0.519829 0.365247 0
0.269689 0.146391 0
0.323596 0.167402 0
0.313091 0.113188 0
0.367897 0.0645775 0
0.396163 0.0349765 0
0.220028 0.321352 0
0.17678 0.307097 0
0.190899 0.356272 0
0.584604 0.203855 0
0.581018 0.162535 0
0.250656 0.860137 0
0.267729 0.814776 0
0.359821 0.770477 0
0.31886 0.781193 0
0.348189 0.800674 0
0.124404 0.679582 0
0.141706 0.637726 0
0.104067 0.642297 0
0.216622 0.899385 0
0.203213 0.085617 0
0.162735 0.126214 0
0.218707 0.132775 0
0.0893725 0.199083 0
0.129761 0.159139 0
0.121022 0.819921 0
0.103905 0.790602 0
0.193647 0.813034 0
0.159614 0.852282 0
0.194196 0.85741 0
0.650843 0.185696 0
0.628589 0.140398 0
0.504917 0.076007 0
0.50366 0.114367 0
0.548742 0.103779 0
0.378761 0.595487 0
0.380208 0.550214 0
0.466523 0.368506 0
0.783675 0.0347525 0
0.75 0 0
0.595056 0.120002 0
0.20263 0.384402 0
0.183224 0.431359 0
0.214741 0.417484 0
0.084015 0.29788 0
0.109114 0.342258 0
0.122552 0.29764 0
0.370334 0.82512 0
0.387646 0.864998 0
0.406461 0.829835 0
0.355164 0.351116 0
0.345461 0.389393 0
0.38124 0.369312 0
0.177444 0.641792 0
0.157107 0.604507 0
0.0286115 0.437949 0
0.0286115 0.487949 0
0 0.45 0
0.184917 0.578051 0
0.216794 0.552094 0
0.310754 0.412615 0
0.268135 0.41228 0
0.13984 0.408422 0
0.159382 0.370147 0
0.128108 0.380293 0
0.784378 0.167398 0
0.797145 0.21454 0
0.649424 0.382815 0
0.693196 0.390508 0
0.682209 0.350082 0
0.471401 0.267911 0
0.482069 0.229507 0
0.600319 0.323089 0
0.597356 0.371644 0
0.370215 0.185901 0
0.420304 0.369225 0
0.410601 0.407502 0
0.5 0.65 0
0.293615 0.645334 0
0.325979 0.66246 0
0.342624 0.703635 0
0.356309 0.666965 0
0.24951 0.782974 0
0.289009 0.779588 0
0.810542 0.362514 0
0.76432 0.338993 0
0.772204 0.381296 0
0.70942 0.286852 0
0.705431 0.332443 0
0.729969 0.312184 0
0.831184 0.106754 0
0.88081 0.111511 0
0.700748 0.430301 0
0.733534 0.397568 0
0.850584 0.326758 0
0.229212 0.186988 0
0.407496 0.52144 0
0.369845 0.506468 0
0.413594 0.760165 0
0.405497 0.719256 0
0.381051 0.749049 0
0.444574 0.794979 0
0.383872 0.640216 0
0.400517 0.681391 0
0.355233 0.0967005 0
0.42608 0.078274 0
0.379662 0.102076 0
0.055907 0.589708 0
0.0873405 0.613876 0
0.072862 0.718619 0
0.0918955 0.751177 0
0.105798 0.716711 0
0.234794 0.74574 0
0.213514 0.780928 0
0.143437 0.712141 0
0.72332 0.190623 0
0.744653 0.160332 0
0.788301 0.105758 0
0.748577 0.0986915 0
0.769527 0.134944 0
0.357928 0.894445 0
0.318709 0.915359 0
0.0802555 0.874244 0
0.121571 0.864297 0
0.32234 0.494638 0
0.349629 0.465863 0
0.384335 0.442641 0
0.336831 0.43081 0
0.608343 0.412069 0
0.527752 0.244716 0
0.858468 0.369061 0
0.627123 0.221367 0
0.382188 0.284319 0
0.345561 0.3138 0
0.437163 0.330315 0
0.746731 0.229689 0
0.149179 0.573985 0
0.720027 0.100984 0
0.810234 0.070501 0
0.861213 0.415162 0
0.827831 0.478851 0
0.85 0.5 0
0.082894 0.447232 0
0.0883665 0.492719 0
0.0578625 0.514002 0
0.300642 0.749391 0
0.351723 0.729569 0
0.321394 0.725064 0
0.416449 0.301103 0
0.462668 0.300384 0
0.837044 0.431259 0
</DataArray>
</Points>
<Cells>
<DataArray  type="UInt32"  Name="connectivity"  format="ascii">
1 138 139 
14 137 139 
45 137 138 
137 138 139 
4 141 142 
27 140 142 
65 140 141 
140 141 142 
0 144 145 
23 143 145 
43 143 144 
143 144 145 
4 141 147 
65 141 146 
105 146 147 
141 146 147 
5 149 150 
31 148 150 
47 148 149 
148 149 150 
2 152 153 
32 151 153 
44 151 152 
151 152 153 
2 152 155 
15 154 155 
44 152 154 
152 154 155 
15 154 157 
44 154 156 
101 156 157 
154 156 157 
6 159 160 
43 158 160 
93 158 159 
158 159 160 
15 162 163 
16 161 163 
71 161 162 
161 162 163 
6 159 165 
7 164 165 
93 159 164 
159 164 165 
[...]
<PointData  Vectors="u"> 
<DataArray  type="Float32"  Name="u"  NumberOfComponents="3" format="ascii">
 0.000000e+00 0.000000e+00 0.000000e+00
 0.000000e+00 0.000000e+00 0.000000e+00
 0.000000e+00 0.000000e+00 0.000000e+00
 0.000000e+00 0.000000e+00 0.000000e+00
 0.000000e+00 0.000000e+00 0.000000e+00
 0.000000e+00 0.000000e+00 0.000000e+00
 0.000000e+00 0.000000e+00 0.000000e+00
 0.000000e+00 0.000000e+00 0.000000e+00
 0.000000e+00 0.000000e+00 0.000000e+00
 0.000000e+00 0.000000e+00 0.000000e+00
 0.000000e+00 0.000000e+00 0.000000e+00
 0.000000e+00 0.000000e+00 0.000000e+00
 0.000000e+00 0.000000e+00 0.000000e+00
 0.000000e+00 0.000000e+00 0.000000e+00
 0.000000e+00 0.000000e+00 0.000000e+00
 0.000000e+00 0.000000e+00 0.000000e+00
 0.000000e+00 0.000000e+00 0.000000e+00
 0.000000e+00 0.000000e+00 0.000000e+00
 0.000000e+00 0.000000e+00 0.000000e+00
 0.000000e+00 0.000000e+00 0.000000e+00
 0.000000e+00 0.000000e+00 0.000000e+00
 0.000000e+00 0.000000e+00 0.000000e+00
 0.000000e+00 0.000000e+00 0.000000e+00
 0.000000e+00 0.000000e+00 0.000000e+00
 0.000000e+00 0.000000e+00 0.000000e+00
 0.000000e+00 0.000000e+00 0.000000e+00
 0.000000e+00 0.000000e+00 0.000000e+00
 0.000000e+00 0.000000e+00 0.000000e+00
 0.000000e+00 0.000000e+00 0.000000e+00
 0.000000e+00 0.000000e+00 0.000000e+00
 0.000000e+00 0.000000e+00 0.000000e+00
 0.000000e+00 0.000000e+00 0.000000e+00
 1.249703e-03 -3.579718e-01 0.000000e+00
 2.360241e-03 -4.649995e-01 0.000000e+00
 2.486595e-03 -4.750040e-01 0.000000e+00
 1.440483e-03 -3.787813e-01 0.000000e+00
 3.759535e-01 8.027570e-04 0.000000e+00
 4.734686e-01 1.562850e-03 0.000000e+00
 4.673028e-01 2.162672e-03 0.000000e+00
 3.601131e-01 1.529661e-03 0.000000e+00
 2.213093e-01 -2.489332e-01 0.000000e+00
 4.252925e-02 -4.688855e-01 0.000000e+00
 4.907127e-01 -3.648807e-02 0.000000e+00
 9.357061e-03 -9.765365e-03 0.000000e+00
 4.628643e-04 -2.003578e-01 0.000000e+00
 2.871395e-01 1.008739e-03 0.000000e+00
 1.973749e-01 8.113941e-04 0.000000e+00
 1.042149e-03 -2.815185e-01 0.000000e+00
 8.804588e-02 -3.636258e-01 0.000000e+00
 4.453455e-01 -2.186440e-01 0.000000e+00
 4.818862e-01 5.406009e-03 0.000000e+00
 1.318162e-02 -4.751304e-01 0.000000e+00
 9.657457e-02 -1.070904e-01 0.000000e+00
 2.593057e-01 -7.546556e-02 0.000000e+00
 3.959790e-01 -4.168858e-02 0.000000e+00
 1.162497e-02 -3.882170e-01 0.000000e+00
 4.194930e-03 -4.385388e-01 0.000000e+00
 1.255907e-01 -4.783380e-01 0.000000e+00
 7.025402e-02 -2.357519e-01 0.000000e+00
 4.230307e-01 -1.531237e-03 0.000000e+00
 4.265697e-01 8.098242e-03 0.000000e+00
 2.623976e-02 -3.512249e-01 0.000000e+00
 2.534194e-02 -4.427810e-01 0.000000e+00
 4.477457e-01 3.101995e-03 0.000000e+00
 4.476440e-01 6.165380e-03 0.000000e+00
 4.070145e-01 -9.998064e-02 0.000000e+00
 1.393854e-01 -4.476612e-02 0.000000e+00
 3.751885e-01 -1.064889e-01 0.000000e+00
 2.770263e-03 -3.258315e-01 0.000000e+00
 1.211187e-02 -4.724510e-01 0.000000e+00
 2.396211e-02 -4.945511e-02 0.000000e+00
 3.373720e-03 -3.150213e-01 0.000000e+00
 2.702657e-01 -1.000830e-02 0.000000e+00
 2.755657e-01 -3.923073e-01 0.000000e+00
 3.661721e-01 -7.931919e-03 0.000000e+00
 2.771229e-01 -2.841834e-02 0.000000e+00
 3.820160e-02 -2.461785e-01 0.000000e+00
 5.294149e-03 -4.789094e-01 0.000000e+00
 8.578612e-02 -4.494264e-01 0.000000e+00
 3.628181e-02 -3.118733e-01 0.000000e+00
 1.419776e-01 -3.097987e-01 0.000000e+00
 3.556562e-02 -1.267055e-01 0.000000e+00
 4.645976e-01 -2.726072e-02 0.000000e+00
 4.550598e-01 -8.058718e-02 0.000000e+00
 3.005998e-01 -1.773088e-01 0.000000e+00
 6.037104e-02 -4.784745e-01 0.000000e+00
 2.368972e-02 -4.785346e-01 0.000000e+00
 4.862964e-01 -1.499546e-03 0.000000e+00
 4.796215e-01 4.022252e-03 0.000000e+00
 3.096978e-01 1.831428e-03 0.000000e+00
 3.422971e-01 7.950123e-03 0.000000e+00
 1.962169e-01 -1.452175e-01 0.000000e+00
 7.568981e-02 -4.316943e-01 0.000000e+00
 5.130440e-02 -2.895722e-02 0.000000e+00
 1.019488e-02 -4.080664e-01 0.000000e+00
 2.219621e-02 -3.526324e-01 0.000000e+00
 1.590753e-01 -2.013486e-02 0.000000e+00
 1.029628e-02 -3.067855e-01 0.000000e+00
 2.620805e-02 -4.201745e-01 0.000000e+00
 4.403815e-01 2.776734e-03 0.000000e+00
 2.986103e-03 -4.347787e-01 0.000000e+00
 1.397415e-03 -3.047893e-01 0.000000e+00
 9.848913e-03 -4.337039e-01 0.000000e+00
 1.703667e-01 -4.161088e-01 0.000000e+00
 1.246114e-01 -2.055755e-01 0.000000e+00
 3.798037e-01 -3.520734e-01 0.000000e+00
 2.861110e-01 5.617907e-03 0.000000e+00
 4.873743e-01 -1.060632e-01 0.000000e+00
 4.590362e-01 9.045222e-03 0.000000e+00
 4.543442e-01 -3.490552e-02 0.000000e+00
 3.312365e-01 -2.873214e-01 0.000000e+00
 4.702574e-01 -1.286533e-02 0.000000e+00
 1.933601e-02 -1.442504e-01 0.000000e+00
 2.454435e-01 7.697106e-03 0.000000e+00
 5.670337e-02 -3.946775e-01 0.000000e+00
 3.185129e-01 -3.797441e-04 0.000000e+00
 4.711189e-02 -4.291154e-01 0.000000e+00
 8.329359e-02 -2.980409e-01 0.000000e+00
 3.600638e-03 -2.410197e-01 0.000000e+00
 2.964582e-01 3.008999e-03 0.000000e+00
 8.192965e-03 -2.983181e-01 0.000000e+00
 1.125554e-02 -1.738213e-01 0.000000e+00
 9.582299e-03 -2.017096e-01 0.000000e+00
 2.144052e-02 -4.697208e-01 0.000000e+00
 3.473458e-02 -4.781955e-01 0.000000e+00
 4.805263e-01 -1.038924e-02 0.000000e+00
 6.099483e-03 -2.045210e-01 0.000000e+00
 2.048928e-02 -4.563906e-01 0.000000e+00
 2.080865e-01 -2.444819e-02 0.000000e+00
 6.832293e-03 -4.495878e-01 0.000000e+00
 2.180546e-01 -4.677319e-01 0.000000e+00
 2.302993e-01 -3.381149e-01 0.000000e+00
 3.058400e-01 1.309329e-03 0.000000e+00
 3.858863e-01 -1.909111e-01 0.000000e+00
 4.747639e-01 -2.694143e-04 0.000000e+00
 1.877149e-01 2.104418e-03 0.000000e+00
 4.401510e-01 -1.444538e-01 0.000000e+00
 1.651760e-01 4.582401e-04 0.000000e+00
 1.644420e-01 2.689935e-04 0.000000e+00
 0.000000e+00 0.000000e+00 0.000000e+00
 2.155560e-01 -1.994124e-02 0.000000e+00
 2.902543e-01 -1.360380e-01 0.000000e+00
 0.000000e+00 0.000000e+00 0.000000e+00
 3.274396e-03 -6.664456e-03 0.000000e+00
 5.447893e-04 -5.356178e-04 0.000000e+00
 0.000000e+00 0.000000e+00 0.000000e+00
 4.237174e-01 -2.355852e-01 0.000000e+00
 3.160276e-01 -3.391764e-01 0.000000e+00
 4.303148e-04 -1.607280e-01 0.000000e+00
 3.822565e-04 -1.598651e-01 0.000000e+00
 0.000000e+00 0.000000e+00 0.000000e+00
 8.351872e-04 -2.914323e-01 0.000000e+00
 2.071826e-04 -1.089230e-01 0.000000e+00
 5.325006e-04 -2.213885e-01 0.000000e+00
 1.760124e-04 -1.083505e-01 0.000000e+00
 0.000000e+00 0.000000e+00 0.000000e+00
 8.143116e-04 -2.572083e-01 0.000000e+00
 4.976823e-04 -1.780590e-01 0.000000e+00
 2.639094e-02 -1.948826e-02 0.000000e+00
 2.118697e-02 -7.999328e-03 0.000000e+00
 7.141498e-03 -3.770068e-03 0.000000e+00
 1.292533e-03 -1.849936e-01 0.000000e+00
 8.360644e-04 -1.870374e-01 0.000000e+00
 0.000000e+00 0.000000e+00 0.000000e+00
 4.076228e-02 -9.925767e-03 0.000000e+00
 0.000000e+00 0.000000e+00 0.000000e+00
 0.000000e+00 0.000000e+00 0.000000e+00
 1.559043e-01 -3.194053e-02 0.000000e+00
 8.624699e-02 -6.491920e-03 0.000000e+00
 1.001462e-01 -1.411908e-02 0.000000e+00
 3.649257e-03 -2.804795e-01 0.000000e+00
 1.013706e-03 -1.354421e-01 0.000000e+00
 1.416315e-03 -1.322066e-01 0.000000e+00
 0.000000e+00 0.000000e+00 0.000000e+00
 3.991137e-02 -4.321954e-02 0.000000e+00
 1.722943e-02 -2.643677e-02 0.000000e+00
 7.411788e-02 -1.403642e-02 0.000000e+00
 0.000000e+00 0.000000e+00 0.000000e+00
 1.033213e-01 -5.929133e-03 0.000000e+00
 0.000000e+00 0.000000e+00 0.000000e+00
 1.824527e-01 -7.696422e-03 0.000000e+00
 1.647049e-01 -9.603433e-03 0.000000e+00
 0.000000e+00 0.000000e+00 0.000000e+00
 3.411940e-01 -6.392240e-02 0.000000e+00
 2.784766e-01 -5.007323e-02 0.000000e+00
 3.184035e-01 -9.423762e-02 0.000000e+00
 1.644186e-01 -2.006691e-03 0.000000e+00
 1.565029e-01 -3.407191e-03 0.000000e+00
 0.000000e+00 0.000000e+00 0.000000e+00
 3.228394e-01 -9.935154e-03 0.000000e+00
 2.320806e-01 -2.507299e-03 0.000000e+00
 2.510387e-01 1.663569e-03 0.000000e+00
 1.710224e-01 1.120471e-03 0.000000e+00
 1.060504e-01 4.054721e-04 0.000000e+00
 8.433387e-03 -2.591635e-01 0.000000e+00
 1.653860e-03 -1.152793e-01 0.000000e+00
 3.188568e-03 -1.817796e-01 0.000000e+00
 2.065267e-03 -1.097632e-01 0.000000e+00
 0.000000e+00 0.000000e+00 0.000000e+00
 1.841352e-01 -3.256764e-01 0.000000e+00
 2.286254e-01 -2.926961e-01 0.000000e+00
 1.811598e-01 -2.838969e-01 0.000000e+00
 2.728264e-02 -2.816083e-01 0.000000e+00
 8.277877e-02 -3.406201e-01 0.000000e+00
 0.000000e+00 0.000000e+00 0.000000e+00
 4.045410e-02 -3.897666e-01 0.000000e+00
 1.128945e-02 -2.244298e-01 0.000000e+00
 1.337374e-02 -3.238548e-01 0.000000e+00
 3.343874e-03 -1.743144e-01 0.000000e+00
 6.136555e-03 -2.063871e-01 0.000000e+00
 2.098085e-03 -1.679671e-01 0.000000e+00
 0.000000e+00 0.000000e+00 0.000000e+00
 2.752637e-03 -4.542316e-01 0.000000e+00
 2.052051e-03 -4.071732e-01 0.000000e+00
 1.896186e-03 -4.305104e-01 0.000000e+00
 2.462651e-01 2.691421e-03 0.000000e+00
 1.013845e-01 6.489925e-04 0.000000e+00
 2.913562e-01 1.210875e-03 0.000000e+00
 1.069848e-01 2.627070e-04 0.000000e+00
 2.219901e-01 6.410915e-04 0.000000e+00
 3.458468e-01 -3.227230e-03 0.000000e+00
 1.909001e-01 3.959295e-04 0.000000e+00
 2.359082e-01 -7.378241e-04 0.000000e+00
 2.982833e-01 8.275904e-03 0.000000e+00
 1.361051e-01 2.830541e-03 0.000000e+00
 2.030325e-01 3.717965e-03 0.000000e+00
 3.126465e-01 7.162156e-04 0.000000e+00
 1.798981e-01 4.889318e-04 0.000000e+00
 0.000000e+00 0.000000e+00 0.000000e+00
 1.295766e-01 3.689859e-03 0.000000e+00
 0.000000e+00 0.000000e+00 0.000000e+00
 3.195108e-03 -1.055951e-01 0.000000e+00
 2.720484e-03 -1.139498e-01 0.000000e+00
 0.000000e+00 0.000000e+00 0.000000e+00
 2.101467e-02 -2.678956e-01 0.000000e+00
 1.817494e-02 -2.862303e-01 0.000000e+00
 3.134382e-02 -3.333420e-01 0.000000e+00
 8.206118e-04 -1.919067e-01 0.000000e+00
 1.446188e-03 -1.942470e-01 0.000000e+00
 0.000000e+00 0.000000e+00 0.000000e+00
 2.869696e-02 -1.953255e-01 0.000000e+00
 5.616000e-03 -8.636650e-02 0.000000e+00
 1.153840e-02 -1.422338e-01 0.000000e+00
 4.736340e-01 3.644200e-03 0.000000e+00
 4.781976e-01 2.516951e-03 0.000000e+00
 4.638850e-01 2.295913e-03 0.000000e+00
 1.474805e-01 4.613800e-03 0.000000e+00
 1.502917e-01 5.252471e-03 0.000000e+00
 0.000000e+00 0.000000e+00 0.000000e+00
 5.691295e-03 -7.230356e-02 0.000000e+00
 0.000000e+00 0.000000e+00 0.000000e+00
 1.021497e-02 -6.127547e-02 0.000000e+00
 1.018937e-02 -8.038836e-02 0.000000e+00
 0.000000e+00 0.000000e+00 0.000000e+00
 3.120487e-03 -4.776394e-01 0.000000e+00
 3.136167e-03 -4.760627e-01 0.000000e+00
 2.569324e-03 -4.782424e-01 0.000000e+00
 1.894271e-03 -4.104675e-01 0.000000e+00
 2.547474e-03 -4.615671e-01 0.000000e+00
 2.077602e-03 -4.483519e-01 0.000000e+00
 3.364664e-01 9.098752e-04 0.000000e+00
 2.361223e-01 3.469816e-04 0.000000e+00
 1.808700e-01 6.880666e-04 0.000000e+00
 1.822428e-01 7.996358e-04 0.000000e+00
 0.000000e+00 0.000000e+00 0.000000e+00
 4.854450e-01 -8.468487e-03 0.000000e+00
 4.829889e-01 -2.333513e-02 0.000000e+00
 4.902835e-01 -1.474090e-02 0.000000e+00
 4.759488e-01 2.976737e-03 0.000000e+00
 4.787291e-01 1.891315e-03 0.000000e+00
 2.018800e-03 -3.777738e-01 0.000000e+00
 1.225473e-03 -3.358288e-01 0.000000e+00
 6.744499e-04 -2.373984e-01 0.000000e+00
 2.471066e-01 -1.631942e-01 0.000000e+00
 2.104624e-01 -1.954826e-01 0.000000e+00
 2.630770e-01 -2.155546e-01 0.000000e+00
 1.610742e-01 -1.786912e-01 0.000000e+00
 1.711187e-01 -2.292640e-01 0.000000e+00
 6.434466e-02 -4.413335e-01 0.000000e+00
 4.621492e-02 -4.525276e-01 0.000000e+00
 6.139856e-02 -4.623491e-01 0.000000e+00
 3.921252e-01 2.044952e-03 0.000000e+00
 4.189082e-01 1.714436e-03 0.000000e+00
 4.743923e-01 -1.788007e-02 0.000000e+00
 4.904015e-01 -2.378964e-02 0.000000e+00
 4.898997e-01 -3.510816e-02 0.000000e+00
 4.140577e-01 3.355502e-03 0.000000e+00
 4.590995e-01 3.744842e-03 0.000000e+00
 4.335014e-01 2.129558e-03 0.000000e+00
 2.905930e-02 -4.792395e-01 0.000000e+00
 3.988505e-02 -4.782302e-01 0.000000e+00
 3.225872e-02 -4.754673e-01 0.000000e+00
 3.147677e-03 -3.921919e-01 0.000000e+00
 1.662373e-03 -3.042888e-01 0.000000e+00
 4.698167e-01 -1.309028e-01 0.000000e+00
 4.457023e-01 -1.794394e-01 0.000000e+00
 4.733640e-01 -1.586250e-01 0.000000e+00
 6.454245e-03 -1.900879e-02 0.000000e+00
 7.204424e-03 -3.421564e-02 0.000000e+00
 0.000000e+00 0.000000e+00 0.000000e+00
 4.453976e-01 1.231780e-03 0.000000e+00
 7.631233e-02 -1.737562e-01 0.000000e+00
 1.116022e-01 -1.550709e-01 0.000000e+00
 6.474827e-02 -1.259940e-01 0.000000e+00
 4.750465e-01 -9.627210e-02 0.000000e+00
 4.913952e-01 -6.468629e-02 0.000000e+00
 4.794456e-01 -5.999053e-02 0.000000e+00
 4.190555e-01 -9.765453e-02 0.000000e+00
 4.296584e-01 -6.132414e-02 0.000000e+00
 3.922336e-01 -7.069425e-02 0.000000e+00
 2.708258e-03 -3.898181e-01 0.000000e+00
 1.228838e-03 -3.334725e-01 0.000000e+00
 6.388739e-03 -4.721281e-01 0.000000e+00
 9.731330e-03 -4.658081e-01 0.000000e+00
 8.675849e-03 -4.777444e-01 0.000000e+00
 2.382890e-02 -4.410293e-01 0.000000e+00
 2.992933e-02 -4.639858e-01 0.000000e+00
 3.493351e-02 -4.504824e-01 0.000000e+00
 3.819277e-02 -2.802766e-01 0.000000e+00
 5.940500e-02 -3.458921e-01 0.000000e+00
 6.344088e-02 -3.125519e-01 0.000000e+00
 1.227872e-01 -4.385190e-01 0.000000e+00
 1.266731e-01 -3.924397e-01 0.000000e+00
 9.202701e-02 -4.114947e-01 0.000000e+00
 3.002929e-01 -4.271745e-01 0.000000e+00
 2.091282e-01 -4.230395e-01 0.000000e+00
 2.985700e-01 1.484567e-03 0.000000e+00
 0.000000e+00 0.000000e+00 0.000000e+00
 3.945993e-01 5.120463e-03 0.000000e+00
 3.312110e-01 2.178694e-03 0.000000e+00
 4.443614e-01 3.583207e-03 0.000000e+00
 4.724355e-01 3.695683e-03 0.000000e+00
 4.731764e-01 4.380730e-03 0.000000e+00
 4.745674e-02 -3.580517e-01 0.000000e+00
 7.156016e-02 -3.819743e-01 0.000000e+00
 1.447620e-02 -4.470478e-01 0.000000e+00
 1.631576e-02 -4.307358e-01 0.000000e+00
 1.098137e-02 -4.137966e-01 0.000000e+00
 7.806546e-02 -4.751811e-01 0.000000e+00
 8.801721e-02 -4.813646e-01 0.000000e+00
 1.062504e-01 -4.660166e-01 0.000000e+00
 4.719857e-01 5.230576e-03 0.000000e+00
 4.805659e-01 5.240871e-03 0.000000e+00
 4.741569e-01 6.822346e-03 0.000000e+00
 4.338363e-01 -1.204121e-02 0.000000e+00
 4.525299e-01 -6.146705e-03 0.000000e+00
 3.983240e-01 -4.750751e-03 0.000000e+00
 4.761255e-01 5.658281e-03 0.000000e+00
 4.777202e-01 7.036755e-03 0.000000e+00
 4.840017e-01 4.091930e-03 0.000000e+00
 3.429425e-01 -1.868383e-01 0.000000e+00
 3.828315e-01 -1.456794e-01 0.000000e+00
 3.422351e-01 -1.427974e-01 0.000000e+00
 4.753461e-01 -1.161211e-01 0.000000e+00
 4.641474e-01 -1.864850e-01 0.000000e+00
 1.753895e-01 -9.212260e-02 0.000000e+00
 2.329219e-01 -1.107109e-01 0.000000e+00
 1.989417e-01 -6.127050e-02 0.000000e+00
 1.835289e-01 -2.248834e-02 0.000000e+00
 1.287720e-01 -7.184988e-03 0.000000e+00
 1.355170e-01 -2.574406e-01 0.000000e+00
 9.639026e-02 -2.256427e-01 0.000000e+00
 1.049038e-01 -2.763497e-01 0.000000e+00
 4.568125e-01 -5.481325e-02 0.000000e+00
 4.284475e-01 -4.014699e-02 0.000000e+00
 8.334614e-03 -4.776830e-01 0.000000e+00
 1.316418e-02 -4.789201e-01 0.000000e+00
 1.580774e-02 -4.478416e-01 0.000000e+00
 1.700277e-02 -4.727125e-01 0.000000e+00
 1.266888e-02 -4.554211e-01 0.000000e+00
 1.806825e-02 -3.763378e-01 0.000000e+00
 2.719241e-02 -3.899399e-01 0.000000e+00
 1.709587e-02 -3.338249e-01 0.000000e+00
 5.111782e-03 -4.705216e-01 0.000000e+00
 9.225420e-02 -3.810585e-02 0.000000e+00
 7.689275e-02 -6.461261e-02 0.000000e+00
 1.250108e-01 -7.749702e-02 0.000000e+00
 3.016700e-02 -8.572630e-02 0.000000e+00
 5.605333e-02 -8.063537e-02 0.000000e+00
 6.451862e-03 -3.892747e-01 0.000000e+00
 6.660291e-03 -3.575094e-01 0.000000e+00
 1.133166e-02 -4.583097e-01 0.000000e+00
 6.609192e-03 -4.365312e-01 0.000000e+00
 7.502595e-03 -4.604341e-01 0.000000e+00
 4.641800e-01 -2.286337e-02 0.000000e+00
 4.238246e-01 -1.911602e-02 0.000000e+00
 2.795229e-01 -1.812795e-02 0.000000e+00
 3.426554e-01 -3.744638e-02 0.000000e+00
 3.496410e-01 -2.392214e-02 0.000000e+00
 7.033635e-02 -4.665722e-01 0.000000e+00
 1.102639e-01 -4.778638e-01 0.000000e+00
 4.237846e-01 -2.825343e-01 0.000000e+00
 1.791964e-01 7.721330e-04 0.000000e+00
 0.000000e+00 0.000000e+00 0.000000e+00
 3.902694e-01 -2.091382e-02 0.000000e+00
 1.108203e-01 -3.072521e-01 0.000000e+00
 8.671884e-02 -3.317747e-01 0.000000e+00
 1.146903e-01 -3.413992e-01 0.000000e+00
 2.697014e-02 -1.396100e-01 0.000000e+00
 4.200745e-02 -1.982495e-01 0.000000e+00
 5.282080e-02 -1.805175e-01 0.000000e+00
 8.624458e-03 -4.318835e-01 0.000000e+00
 4.915873e-03 -4.048174e-01 0.000000e+00
 5.531262e-03 -3.711547e-01 0.000000e+00
 2.801010e-01 -3.182929e-01 0.000000e+00
 2.541695e-01 -3.655775e-01 0.000000e+00
 3.101898e-01 -3.412721e-01 0.000000e+00
 3.555185e-02 -4.262636e-01 0.000000e+00
 3.719290e-02 -3.975385e-01 0.000000e+00
 3.722360e-03 -8.585888e-02 0.000000e+00
 3.367231e-03 -9.618184e-02 0.000000e+00
 0.000000e+00 0.000000e+00 0.000000e+00
 5.235269e-02 -4.133541e-01 0.000000e+00
 7.214697e-02 -4.253090e-01 0.000000e+00
 2.025720e-01 -3.811243e-01 0.000000e+00
 1.615095e-01 -3.633326e-01 0.000000e+00
 5.951142e-02 -2.778058e-01 0.000000e+00
 7.758376e-02 -2.671989e-01 0.000000e+00
 5.321866e-02 -2.458473e-01 0.000000e+00
 4.614395e-01 1.847441e-03 0.000000e+00
 4.807666e-01 3.423758e-03 0.000000e+00
 3.978989e-01 -7.246189e-03 0.000000e+00
 3.715022e-01 7.486799e-03 0.000000e+00
 4.439769e-01 -2.692649e-03 0.000000e+00
 4.153154e-01 -1.692248e-01 0.000000e+00
 4.082859e-01 -1.272618e-01 0.000000e+00
 4.870094e-01 -6.522365e-02 0.000000e+00
 4.416890e-01 -5.567861e-02 0.000000e+00
 2.846227e-01 -1.235301e-01 0.000000e+00
 3.642293e-01 -3.282757e-01 0.000000e+00
 3.270478e-01 -3.878421e-01 0.000000e+00
 0.000000e+00 0.000000e+00 0.000000e+00
 5.303419e-02 -4.785304e-01 0.000000e+00
 4.556909e-02 -4.779124e-01 0.000000e+00
 3.107316e-02 -4.680255e-01 0.000000e+00
 4.012359e-02 -4.653088e-01 0.000000e+00
 1.731013e-02 -4.764083e-01 0.000000e+00
 1.805717e-02 -4.787281e-01 0.000000e+00
 4.167387e-01 1.004432e-02 0.000000e+00
 4.455850e-01 9.333736e-03 0.000000e+00
 3.871739e-01 1.100577e-02 0.000000e+00
 4.847216e-01 -4.923795e-03 0.000000e+00
 4.593845e-01 8.507487e-04 0.000000e+00
 4.707941e-01 2.580431e-03 0.000000e+00
 3.916541e-01 2.700026e-03 0.000000e+00
 3.988574e-01 2.687113e-03 0.000000e+00
 2.636595e-01 8.821483e-03 0.000000e+00
 3.537068e-01 1.072731e-02 0.000000e+00
 4.528527e-01 8.388714e-03 0.000000e+00
 1.445551e-01 -1.284451e-01 0.000000e+00
 1.435272e-01 -4.705681e-01 0.000000e+00
 1.638422e-01 -4.775306e-01 0.000000e+00
 9.833951e-03 -3.628644e-01 0.000000e+00
 1.649740e-02 -3.887762e-01 0.000000e+00
 1.634331e-02 -4.257338e-01 0.000000e+00
 3.781147e-03 -2.660258e-01 0.000000e+00
 4.395486e-02 -4.467439e-01 0.000000e+00
 2.546445e-02 -4.083271e-01 0.000000e+00
 2.190650e-01 -4.547802e-02 0.000000e+00
 2.428810e-01 -2.702238e-02 0.000000e+00
 2.440310e-01 -4.764004e-02 0.000000e+00
 7.774488e-03 -2.041935e-01 0.000000e+00
 1.475374e-02 -2.919797e-01 0.000000e+00
 6.331127e-03 -2.775860e-01 0.000000e+00
 7.389431e-03 -3.286304e-01 0.000000e+00
 1.148772e-02 -3.520431e-01 0.000000e+00
 2.281461e-02 -4.713958e-01 0.000000e+00
 1.617115e-02 -4.659289e-01 0.000000e+00
 1.787056e-02 -4.073205e-01 0.000000e+00
 4.733459e-01 -5.366547e-03 0.000000e+00
 4.559801e-01 -1.444188e-03 0.000000e+00
 3.904136e-01 1.993488e-03 0.000000e+00
 3.768530e-01 7.063616e-04 0.000000e+00
 4.327299e-01 1.122168e-03 0.000000e+00
 4.548388e-03 -4.424394e-01 0.000000e+00
 4.243774e-03 -4.691282e-01 0.000000e+00
 2.172208e-03 -3.104154e-01 0.000000e+00
 4.268484e-03 -3.925303e-01 0.000000e+00
 1.544069e-01 -4.549733e-01 0.000000e+00
 1.998165e-01 -4.478579e-01 0.000000e+00
 2.565343e-01 -4.357286e-01 0.000000e+00
 2.190191e-01 -4.098868e-01 0.000000e+00
 3.397794e-01 -2.191794e-02 0.000000e+00
 4.500621e-01 -1.098539e-01 0.000000e+00
 4.085479e-01 7.612570e-03 0.000000e+00
 4.774787e-01 -3.872339e-02 0.000000e+00
 3.182611e-01 -2.297867e-01 0.000000e+00
 2.737159e-01 -2.708174e-01 0.000000e+00