<?xml version="1.0"?>
<VTKFile type="UnstructuredGrid"  version="0.1"  >
<UnstructuredGrid>
<Piece  NumberOfPoints="505" NumberOfCells="928">
<Points>
<DataArray  type="Float32"  NumberOfComponents="3"  format="ascii">
0 0 0
1 0 0
0 1 0
1 0.5 0
0.5 0.5 0
0.5 1 0
0.1 0 0
0.2 0 0
0.3 0 0
0.4 0 0
0.5 0 0
0.6 0 0
0.7 0 0
0.8 0 0
0.9 0 0
0 0.9 0
0 0.8 0
0 0.7 0
0 0.6 0
0 0.5 0
0 0.4 0
0 0.3 0
0 0.2 0
0 0.1 0
0.9 0.5 0
0.8 0.5 0
0.7 0.5 0
0.6 0.5 0
0.5 0.6 0
0.5 0.7 0
0.5 0.8 0
0.5 0.9 0
0.1 1 0
0.2 1 0
0.3 1 0
0.4 1 0
1 0.1 0
1 0.2 0
1 0.3 0
1 0.4 0
0.300178 0.296564 0
0.247566 0.664879 0
0.639694 0.259804 0
0.06564 0.06472 0
0.04439 0.954144 0
0.932418 0.064715 0
0.951013 0.456419 0
0.437622 0.939659 0
0.195334 0.464441 0
0.483382 0.329596 0
0.834786 0.236295 0
0.307228 0.81139 0
0.178229 0.173372 0
0.366998 0.134199 0
0.547485 0.14214 0
0.124832 0.74927 0
0.160163 0.896658 0
0.342556 0.535243 0
0.147651 0.342018 0
0.729803 0.127878 0
0.725981 0.357775 0
0.121369 0.600441 0
0.372954 0.70814 0
0.908503 0.151525 0
0.89851 0.333305 0
0.556275 0.400898 0
0.259184 0.092178 0
0.46329 0.194362 0
0.423773 0.869712 0
0.22823 0.818162 0
0.081292 0.144905 0
0.082979 0.831935 0
0.549999 0.065419 0
0.371537 0.407588 0
0.642628 0.097865 0
0.459835 0.086595 0
0.108565 0.418567 0
0.273082 0.902112 0
0.256598 0.556659 0
0.11951 0.509541 0
0.234147 0.370527 0
0.097453 0.253261 0
0.638438 0.342389 0
0.554656 0.224779 0
0.373432 0.237603 0
0.339663 0.62579 0
0.27079 0.747786 0
0.733958 0.266592 0
0.928527 0.244458 0
0.853116 0.071497 0
0.818426 0.404817 0
0.280194 0.200604 0
0.417859 0.565185 0
0.147241 0.079056 0
0.389149 0.789957 0
0.42808 0.654642 0
0.343469 0.059202 0
0.086765 0.684153 0
0.162043 0.675011 0
0.809252 0.14201 0
0.364337 0.928607 0
0.077532 0.916553 0
0.159064 0.807906 0
0.302124 0.454032 0
0.205909 0.272176 0
0.449664 0.407415 0
0.66041 0.423241 0
0.562201 0.303789 0
0.802658 0.320211 0
0.614551 0.182931 0
0.390944 0.331035 0
0.687136 0.18846 0
0.070577 0.342498 0
0.741087 0.437361 0
0.176989 0.547528 0
0.710251 0.07409 0
0.192845 0.608574 0
0.171114 0.398277 0
0.058959 0.753084 0
0.904 0.425508 0
0.438039 0.730373 0
0.057223 0.475897 0
0.058502 0.552106 0
0.330493 0.750997 0
0.312295 0.699131 0
0.684882 0.307111 0
0.053312 0.627311 0
0.198798 0.743695 0
0.392326 0.069953 0
0.351519 0.860283 0
0.397134 0.477694 0
0.319385 0.371198 0
0.767351 0.069505 0
0.441954 0.271171 0
0.759504 0.192785 0
0.855661 0.457701 0
0.500847 0.264652 0
0.916209 0.0323575 0
0.966209 0.0323575 0
0.95 0 0
0.578137 0.450449 0
0.528137 0.450449 0
0.55 0.5 0
0.03282 0.08236 0
0.03282 0.03236 0
0 0.05 0
0.502969 0.404157 0
0.474832 0.453708 0
0.468811 0.91983 0
0.468811 0.96983 0
0.5 0.95 0
0.072195 0.977072 0
0.022195 0.977072 0
0.05 1 0
0.022195 0.927072 0
0 0.95 0
0.060961 0.935348 0
0.038766 0.908276 0
0.106441 0.071888 0
0.123621 0.039528 0
0.08282 0.03236 0
0.0414895 0.815967 0
0.0414895 0.865968 0
0 0.85 0
0.173621 0.039528 0
0.15 0 0
0.05 0 0
0.301327 0.07569 0
0.321735 0.029601 0
0.279592 0.046089 0
0.070969 0.792509 0
0.0294795 0.776542 0
0.0294795 0.726542 0
0 0.75 0
0.114267 0.111981 0
0.073466 0.104813 0
0.229592 0.046089 0
0.25 0 0
0.371735 0.029601 0
0.35 0 0
0.479917 0.0432975 0
0.429918 0.0432975 0
0.45 0 0
0.461562 0.140479 0
0.413416 0.110397 0
0.415144 0.16428 0
0.574999 0.0327095 0
0.525 0.0327095 0
0.55 0 0
0.596313 0.081642 0
0.621314 0.0489325 0
0.927507 0.440964 0
0.902 0.462754 0
0.925507 0.47821 0
0.0700385 0.655732 0
0.026656 0.663655 0
0.0433825 0.692076 0
0.026656 0.613655 0
0 0.65 0
0.276766 0.370862 0
0.309781 0.333881 0
0.267162 0.333545 0
0.458929 0.582593 0
0.458929 0.532593 0
0.5 0.55 0
0.422969 0.609913 0
0.46404 0.627321 0
0.43306 0.692508 0
0.46902 0.715186 0
0.46404 0.677321 0
0.46902 0.765186 0
0.5 0.75 0
0.180082 0.948329 0
0.130082 0.948329 0
0.15 1 0
0.87983 0.441605 0
0.87783 0.478851 0
0.975507 0.42821 0
0.975507 0.47821 0
1 0.45 0
0.676439 0.0859775 0
0.705125 0.037045 0
0.671314 0.0489325 0
0.779756 0.421089 0
0.770544 0.46868 0
0.809213 0.452408 0
0.738801 0.0717975 0
0.733675 0.0347525 0
0.95 0.5 0
0.720544 0.46868 0
0.75 0.5 0
0.029251 0.526053 0
0.029251 0.576053 0
0 0.55 0
0.089006 0.530824 0
0.0899355 0.576273 0
0.12044 0.554991 0
0.461886 0.884856 0
0.461886 0.834856 0
0.5 0.85 0
0.089571 0.380533 0
0.0352885 0.371249 0
0.0542825 0.409284 0
0.918515 0.197991 0
0.964263 0.222229 0
0.954252 0.175762 0
0.630205 0.46162 0
0.680205 0.46162 0
0.65 0.5 0
0.0352885 0.321249 0
0 0.35 0
0.0487265 0.226631 0
0.0487265 0.276631 0
0 0.25 0
0.286541 0.951056 0
0.236541 0.951056 0
0.25 1 0
0.382169 0.964303 0
0.332168 0.964303 0
0.35 1 0
0.966209 0.0823575 0
1 0.05 0
0.876558 0.0357485 0
0.826558 0.0357485 0
0.85 0 0
0.710547 0.227526 0
0.663415 0.224132 0
0.686826 0.263198 0
0.964263 0.272229 0
1 0.25 0
0.40098 0.934133 0
0.418811 0.96983 0
0.45 1 0
0.326813 0.219104 0
0.290186 0.248584 0
0.336805 0.267084 0
0.243052 0.23639 0
0.253043 0.28437 0
0.224721 0.582616 0
0.220205 0.636726 0
0.252082 0.610769 0
0.92046 0.10812 0
0.954252 0.125762 0
0.66166 0.32475 0
0.662288 0.283458 0
0.639066 0.301096 0
0.949255 0.366653 0
0.949255 0.316653 0
1 0.35 0
0.291542 0.723459 0
0.27993 0.682005 0
0.259178 0.706333 0
0.394055 0.89916 0
0.430698 0.904686 0
0.531524 0.28422 0
0.492115 0.297124 0
0.522791 0.316692 0
0.040646 0.122453 0
0.040646 0.172453 0
0 0.15 0
1 0.15 0
0.151681 0.262718 0
0.192069 0.222774 0
0.137841 0.213317 0
0.558428 0.264284 0
0.600947 0.281797 0
0.597175 0.242291 0
0.508973 0.20957 0
0.551071 0.183459 0
0.505387 0.168251 0
0.118847 0.906605 0
0.088766 0.958276 0
0.3123 0.881198 0
0.329373 0.835836 0
0.290155 0.856751 0
0.18042 0.709353 0
0.223182 0.704287 0
0.204805 0.669945 0
0.114037 0.464054 0
0.157422 0.486991 0
0.15195 0.441504 0
0.279361 0.505346 0
0.248729 0.459236 0
0.225966 0.51055 0
0.423399 0.442555 0
0.448567 0.488847 0
0.892767 0.068106 0
0.65 0 0
0.901255 0.379406 0
0.952 0.412754 0
0.858877 0.146767 0
0.822019 0.189153 0
0.871644 0.19391 0
0.14825 0.528535 0
0.186162 0.505985 0
0.178931 0.775801 0
0.161815 0.746482 0
0.141948 0.778588 0
0.29813 0.591225 0
0.34111 0.580516 0
0.299577 0.545951 0
0.913519 0.288882 0
0.881657 0.240376 0
0.866648 0.2848 0
0.664882 0.143162 0
0.708469 0.158169 0
0.686215 0.112871 0
0.768308 0.293401 0
0.818722 0.278253 0
0.784372 0.251443 0
0.407693 0.254387 0
0.452622 0.232766 0
0.418361 0.215983 0
0.559238 0.352343 0
0.519829 0.365247 0
0.269689 0.146391 0
0.323596 0.167402 0
0.313091 0.113188 0
0.367897 0.0645775 0
0.396163 0.0349765 0
0.220028 0.321352 0
0.17678 0.307097 0
0.190899 0.356272 0
0.584604 0.203855 0
0.581018 0.162535 0
0.250656 0.860137 0
0.267729 0.814776 0
0.359821 0.770477 0
0.31886 0.781193 0
0.348189 0.800674 0
0.124404 0.679582 0
0.141706 0.637726 0
0.104067 0.642297 0
0.216622 0.899385 0
0.203213 0.085617 0
0.162735 0.126214 0
0.218707 0.132775 0
0.0893725 0.199083 0
0.129761 0.159139 0
0.121022 0.819921 0
0.103905 0.790602 0
0.193647 0.813034 0
0.159614 0.852282 0
0.194196 0.85741 0
0.650843 0.185696 0
0.628589 0.140398 0
0.504917 0.076007 0
0.50366 0.114367 0
0.548742 0.103779 0
0.378761 0.595487 0
0.380208 0.550214 0
0.466523 0.368506 0
0.783675 0.0347525 0
0.75 0 0
0.595056 0.120002 0
0.20263 0.384402 0
0.183224 0.431359 0
0.214741 0.417484 0
0.084015 0.29788 0
0.109114 0.342258 0
0.122552 0.29764 0
0.370334 0.82512 0
0.387646 0.864998 0
0.406461 0.829835 0
0.355164 0.351116 0
0.345461 0.389393 0
0.38124 0.369312 0
0.177444 0.641792 0
0.157107 0.604507 0
0.0286115 0.437949 0
0.0286115 0.487949 0
0 0.45 0
0.184917 0.578051 0
0.216794 0.552094 0
0.310754 0.412615 0
0.268135 0.41228 0
0.13984 0.408422 0
0.159382 0.370147 0
0.128108 0.380293 0
0.784378 0.167398 0
0.797145 0.21454 0
0.649424 0.382815 0
0.693196 0.390508 0
0.682209 0.350082 0
0.471401 0.267911 0
0.482069 0.229507 0
0.600319 0.323089 0
0.597356 0.371644 0
0.370215 0.185901 0
0.420304 0.369225 0
0.410601 0.407502 0
0.5 0.65 0
0.293615 0.645334 0
0.325979 0.66246 0
0.342624 0.703635 0
0.356309 0.666965 0
0.24951 0.782974 0
0.289009 0.779588 0
0.810542 0.362514 0
0.76432 0.338993 0
0.772204 0.381296 0
0.70942 0.286852 0
0.705431 0.332443 0
0.729969 0.312184 0
0.831184 0.106754 0
0.88081 0.111511 0
0.700748 0.430301 0
0.733534 0.397568 0
0.850584 0.326758 0
0.229212 0.186988 0
0.407496 0.52144 0
0.369845 0.506468 0
0.413594 0.760165 0
0.405497 0.719256 0
0.381051 0.749049 0
0.444574 0.794979 0
0.383872 0.640216 0
0.400517 0.681391 0
0.355233 0.0967005 0
0.42608 0.078274 0
0.379662 0.102076 0
0.055907 0.589708 0
0.0873405 0.613876 0
0.072862 0.718619 0
0.0918955 0.751177 0
0.105798 0.716711 0
0.234794 0.74574 0
0.213514 0.780928 0
0.143437 0.712141 0
0.72332 0.190623 0
0.744653 0.160332 0
0.788301 0.105758 0
0.748577 0.0986915 0
0.769527 0.134944 0
0.357928 0.894445 0
0.318709 0.915359 0
0.0802555 0.874244 0
0.121571 0.864297 0
0.32234 0.494638 0
0.349629 0.465863 0
0.384335 0.442641 0
0.336831 0.43081 0
0.608343 0.412069 0
0.527752 0.244716 0
0.858468 0.369061 0
0.627123 0.221367 0
0.382188 0.284319 0
0.345561 0.3138 0
0.437163 0.330315 0
0.746731 0.229689 0
0.149179 0.573985 0
0.720027 0.100984 0
0.810234 0.070501 0
0.861213 0.415162 0
0.827831 0.478851 0
0.85 0.5 0
0.082894 0.447232 0
0.0883665 0.492719 0
0.0578625 0.514002 0
0.300642 0.749391 0
0.351723 0.729569 0
0.321394 0.725064 0
0.416449 0.301103 0
0.462668 0.300384 0
0.837044 0.431259 0
</DataArray>
</Points>
<Cells>
<DataArray  type="UInt32"  Name="connectivity"  format="ascii">
1 138 139 
14 137 139 
45 137 138 
137 138 139 
4 141 142 
27 140 142 
65 140 141 
140 141 142 
0 144 145 
23 143 145 
43 143 144 
143 144 145 
4 141 147 
65 141 146 
105 146 147 
141 146 147 
5 149 150 
31 148 150 
47 148 149 
148 149 150 
2 152 153 
32 151 153 
44 151 152 
151 152 153 
2 152 155 
15 154 155 
44 152 154 
152 154 155 
15 154 157 
44 154 156 
101 156 157 
154 156 157 
6 159 160 
43 158 160 
93 158 159 
158 159 160 
15 162 163 
16 161 163 
71 161 162 
161 162 163 
6 159 165 
7 164 165 
93 159 164 
159 164 165 
[...]
<PointData  Vectors="u"> 
<DataArray  type="Float32"  Name="u"  NumberOfComponents="3" format="ascii">
 0.000000e+00 0.000000e+00 0.000000e+00
 0.000000e+00 0.000000e+00 0.000000e+00
 0.000000e+00 0.000000e+00 0.000000e+00
 0.000000e+00 0.000000e+00 0.000000e+00
 0.000000e+00 0.000000e+00 0.000000e+00
 0.000000e+00 0.000000e+00 0.000000e+00
 0.000000e+00 0.000000e+00 0.000000e+00
 0.000000e+00 0.000000e+00 0.000000e+00
 0.000000e+00 0.000000e+00 0.000000e+00
 0.000000e+00 0.000000e+00 0.000000e+00
 0.000000e+00 0.000000e+00 0.000000e+00
 0.000000e+00 0.000000e+00 0.000000e+00
 0.000000e+00 0.000000e+00 0.000000e+00
 0.000000e+00 0.000000e+00 0.000000e+00
 0.000000e+00 0.000000e+00 0.000000e+00
 0.000000e+00 0.000000e+00 0.000000e+00
 0.000000e+00 0.000000e+00 0.000000e+00
 0.000000e+00 0.000000e+00 0.000000e+00
 0.000000e+00 0.000000e+00 0.000000e+00
 0.000000e+00 0.000000e+00 0.000000e+00
 0.000000e+00 0.000000e+00 0.000000e+00
 0.000000e+00 0.000000e+00 0.000000e+00
 0.000000e+00 0.000000e+00 0.000000e+00
 0.000000e+00 0.000000e+00 0.000000e+00
 0.000000e+00 0.000000e+00 0.000000e+00
 0.000000e+00 0.000000e+00 0.000000e+00
 0.000000e+00 0.000000e+00 0.000000e+00
 0.000000e+00 0.000000e+00 0.000000e+00
 0.000000e+00 0.000000e+00 0.000000e+00
 0.000000e+00 0.000000e+00 0.000000e+00
 0.000000e+00 0.000000e+00 0.000000e+00
 0.000000e+00 0.000000e+00 0.000000e+00
 1.306262e-03 -3.526549e-01 0.000000e+00
 2.463178e-03 -4.688297e-01 0.000000e+00
 2.597648e-03 -4.795836e-01 0.000000e+00
 1.506057e-03 -3.747392e-01 0.000000e+00
 3.726889e-01 1.346384e-03 0.000000e+00
 4.784912e-01 2.792193e-03 0.000000e+00
 4.707960e-01 3.552844e-03 0.000000e+00
 3.539183e-01 2.234936e-03 0.000000e+00
 2.218990e-01 -2.540686e-01 0.000000e+00
 4.266954e-02 -4.742237e-01 0.000000e+00
 4.976477e-01 -3.556943e-02 0.000000e+00
 8.119174e-03 -8.546348e-03 0.000000e+00
 4.787086e-04 -1.917737e-01 0.000000e+00
 2.809413e-01 1.398544e-03 0.000000e+00
 1.879512e-01 1.072738e-03 0.000000e+00
 1.057513e-03 -2.741041e-01 0.000000e+00
 8.782618e-02 -3.663790e-01 0.000000e+00
 4.462431e-01 -2.231514e-01 0.000000e+00
 4.883569e-01 8.442580e-03 0.000000e+00
 1.320650e-02 -4.794185e-01 0.000000e+00
 9.445878e-02 -1.065682e-01 0.000000e+00
 2.599600e-01 -7.688910e-02 0.000000e+00
 4.007845e-01 -4.183925e-02 0.000000e+00
 1.160105e-02 -3.854902e-01 0.000000e+00
 4.227978e-03 -4.394604e-01 0.000000e+00
 1.249902e-01 -4.816729e-01 0.000000e+00
 6.910225e-02 -2.342278e-01 0.000000e+00
 4.263737e-01 2.160118e-04 0.000000e+00
 4.215376e-01 1.117857e-02 0.000000e+00
 2.613596e-02 -3.478661e-01 0.000000e+00
 2.528929e-02 -4.419766e-01 0.000000e+00
 4.505752e-01 4.606482e-03 0.000000e+00
 4.478822e-01 8.480963e-03 0.000000e+00
 3.945641e-01 -1.002771e-01 0.000000e+00
 1.367075e-01 -4.502731e-02 0.000000e+00
 3.799756e-01 -1.090132e-01 0.000000e+00
 2.756454e-03 -3.194763e-01 0.000000e+00
 1.213696e-02 -4.774310e-01 0.000000e+00
 2.248443e-02 -4.631490e-02 0.000000e+00
 3.350543e-03 -3.080238e-01 0.000000e+00
 2.690418e-01 -9.723164e-03 0.000000e+00
 2.747475e-01 -3.976609e-01 0.000000e+00
 3.675643e-01 -6.992399e-03 0.000000e+00
 2.771143e-01 -2.862138e-02 0.000000e+00
 3.748661e-02 -2.413705e-01 0.000000e+00
 5.347894e-03 -4.842382e-01 0.000000e+00
 8.589935e-02 -4.549170e-01 0.000000e+00
 3.594228e-02 -3.081194e-01 0.000000e+00
 1.416858e-01 -3.140113e-01 0.000000e+00
 3.417757e-02 -1.222801e-01 0.000000e+00
 4.618622e-01 -2.622814e-02 0.000000e+00
 4.621968e-01 -8.201365e-02 0.000000e+00
 3.030348e-01 -1.816636e-01 0.000000e+00
 6.028279e-02 -4.810902e-01 0.000000e+00
 2.375937e-02 -4.838996e-01 0.000000e+00
 4.924089e-01 1.691537e-03 0.000000e+00
 4.853589e-01 6.071467e-03 0.000000e+00
 3.050357e-01 2.507214e-03 0.000000e+00
 3.325569e-01 9.926660e-03 0.000000e+00
 1.959676e-01 -1.478319e-01 0.000000e+00
 7.433775e-02 -4.263095e-01 0.000000e+00
 4.832998e-02 -2.799816e-02 0.000000e+00
 1.016516e-02 -4.053652e-01 0.000000e+00
 2.189439e-02 -3.459176e-01 0.000000e+00
 1.564134e-01 -2.029227e-02 0.000000e+00
 1.022136e-02 -3.000262e-01 0.000000e+00
 2.624883e-02 -4.210726e-01 0.000000e+00
 4.437874e-01 4.739040e-03 0.000000e+00
 3.038356e-03 -4.346716e-01 0.000000e+00
 1.407664e-03 -2.972937e-01 0.000000e+00
 9.847841e-03 -4.344883e-01 0.000000e+00
 1.702633e-01 -4.220665e-01 0.000000e+00
 1.234911e-01 -2.072091e-01 0.000000e+00
 3.744476e-01 -3.540769e-01 0.000000e+00
 2.703659e-01 6.667561e-03 0.000000e+00
 4.905250e-01 -1.081800e-01 0.000000e+00
 4.599804e-01 1.258319e-02 0.000000e+00
 4.617455e-01 -3.430556e-02 0.000000e+00
 3.325549e-01 -2.933860e-01 0.000000e+00
 4.778763e-01 -1.090521e-02 0.000000e+00
 1.855773e-02 -1.376971e-01 0.000000e+00
 2.311598e-01 8.961607e-03 0.000000e+00
 5.666072e-02 -3.964767e-01 0.000000e+00
 3.164354e-01 4.802833e-04 0.000000e+00
 4.720966e-02 -4.322369e-01 0.000000e+00
 8.260740e-02 -2.986206e-01 0.000000e+00
 3.549827e-03 -2.325171e-01 0.000000e+00
 2.868588e-01 3.861243e-03 0.000000e+00
 8.091681e-03 -2.908760e-01 0.000000e+00
 1.093237e-02 -1.658424e-01 0.000000e+00
 9.384736e-03 -1.934167e-01 0.000000e+00
 2.147185e-02 -4.726706e-01 0.000000e+00
 3.480395e-02 -4.823265e-01 0.000000e+00
 4.830437e-01 -7.948639e-03 0.000000e+00
 5.994979e-03 -1.960083e-01 0.000000e+00
 2.053847e-02 -4.600794e-01 0.000000e+00
 2.062919e-01 -2.468221e-02 0.000000e+00
 6.846549e-03 -4.507503e-01 0.000000e+00
 2.150203e-01 -4.680386e-01 0.000000e+00
 2.306754e-01 -3.443755e-01 0.000000e+00
 3.023989e-01 2.106912e-03 0.000000e+00
 3.896893e-01 -1.957131e-01 0.000000e+00
 4.818520e-01 2.420716e-03 0.000000e+00
 1.770214e-01 2.572635e-03 0.000000e+00
 4.453460e-01 -1.480753e-01 0.000000e+00
 1.587074e-01 5.999246e-04 0.000000e+00
 1.576478e-01 3.873559e-04 0.000000e+00
 0.000000e+00 0.000000e+00 0.000000e+00
 1.988125e-01 -1.949173e-02 0.000000e+00
 2.737867e-01 -1.317736e-01 0.000000e+00
 0.000000e+00 0.000000e+00 0.000000e+00
 2.778483e-03 -5.400806e-03 0.000000e+00
 1.882593e-04 -1.819215e-04 0.000000e+00
 0.000000e+00 0.000000e+00 0.000000e+00
 4.139337e-01 -2.356515e-01 0.000000e+00
 3.051599e-01 -3.336552e-01 0.000000e+00
 4.282271e-04 -1.535895e-01 0.000000e+00
 3.936506e-04 -1.526802e-01 0.000000e+00
 0.000000e+00 0.000000e+00 0.000000e+00
 8.737802e-04 -2.836369e-01 0.000000e+00
 2.169235e-04 -1.024375e-01 0.000000e+00
 5.611146e-04 -2.127252e-01 0.000000e+00
 1.735740e-04 -1.018905e-01 0.000000e+00
 0.000000e+00 0.000000e+00 0.000000e+00
 8.287899e-04 -2.487435e-01 0.000000e+00
 4.890344e-04 -1.696188e-01 0.000000e+00
 2.415277e-02 -1.822520e-02 0.000000e+00
 1.893853e-02 -7.490563e-03 0.000000e+00
 5.881979e-03 -3.287371e-03 0.000000e+00
 1.274093e-03 -1.767290e-01 0.000000e+00
 8.214945e-04 -1.787486e-01 0.000000e+00
 0.000000e+00 0.000000e+00 0.000000e+00
 3.784025e-02 -9.606334e-03 0.000000e+00
 0.000000e+00 0.000000e+00 0.000000e+00
 0.000000e+00 0.000000e+00 0.000000e+00
 1.532464e-01 -3.222849e-02 0.000000e+00
 8.340391e-02 -6.468758e-03 0.000000e+00
 9.699775e-02 -1.413625e-02 0.000000e+00
 3.609397e-03 -2.725519e-01 0.000000e+00
 9.898957e-04 -1.280238e-01 0.000000e+00
 1.379065e-03 -1.248528e-01 0.000000e+00
 0.000000e+00 0.000000e+00 0.000000e+00
 3.761987e-02 -4.124520e-02 0.000000e+00
 1.579663e-02 -2.420017e-02 0.000000e+00
 7.083128e-02 -1.391202e-02 0.000000e+00
 0.000000e+00 0.000000e+00 0.000000e+00
 1.006770e-01 -5.924974e-03 0.000000e+00
 0.000000e+00 0.000000e+00 0.000000e+00
 1.801245e-01 -7.621155e-03 0.000000e+00
 1.622786e-01 -9.612033e-03 0.000000e+00
 0.000000e+00 0.000000e+00 0.000000e+00
 3.443569e-01 -6.504222e-02 0.000000e+00
 2.791289e-01 -5.082064e-02 0.000000e+00
 3.212177e-01 -9.632650e-02 0.000000e+00
 1.614090e-01 -1.825460e-03 0.000000e+00
 1.537643e-01 -3.275853e-03 0.000000e+00
 0.000000e+00 0.000000e+00 0.000000e+00
 3.229162e-01 -9.380430e-03 0.000000e+00
 2.293666e-01 -2.136673e-03 0.000000e+00
 2.411672e-01 2.156681e-03 0.000000e+00
 1.614217e-01 1.398051e-03 0.000000e+00
 9.900970e-02 5.093623e-04 0.000000e+00
 8.339250e-03 -2.511715e-01 0.000000e+00
 1.605795e-03 -1.083513e-01 0.000000e+00
 3.125868e-03 -1.732969e-01 0.000000e+00
 2.005558e-03 -1.029465e-01 0.000000e+00
 0.000000e+00 0.000000e+00 0.000000e+00
 1.842451e-01 -3.312999e-01 0.000000e+00
 2.292370e-01 -2.985500e-01 0.000000e+00
 1.811983e-01 -2.888998e-01 0.000000e+00
 2.641075e-02 -2.728840e-01 0.000000e+00
 8.000617e-02 -3.313831e-01 0.000000e+00
 0.000000e+00 0.000000e+00 0.000000e+00
 3.982517e-02 -3.835629e-01 0.000000e+00
 1.097984e-02 -2.164306e-01 0.000000e+00
 1.321218e-02 -3.167479e-01 0.000000e+00
 3.263348e-03 -1.670226e-01 0.000000e+00
 5.996091e-03 -1.986892e-01 0.000000e+00
 2.039629e-03 -1.606865e-01 0.000000e+00
 0.000000e+00 0.000000e+00 0.000000e+00
 2.830090e-03 -4.567927e-01 0.000000e+00
 2.110961e-03 -4.051182e-01 0.000000e+00
 1.981434e-03 -4.305094e-01 0.000000e+00
 2.355857e-01 3.370691e-03 0.000000e+00
 9.404851e-02 7.825805e-04 0.000000e+00
 2.826103e-01 1.694072e-03 0.000000e+00
 1.002046e-01 3.616349e-04 0.000000e+00
 2.127167e-01 9.228625e-04 0.000000e+00
 3.455667e-01 -2.283342e-03 0.000000e+00
 1.863859e-01 7.283174e-04 0.000000e+00
 2.326584e-01 -2.812075e-04 0.000000e+00
 2.859304e-01 9.995998e-03 0.000000e+00
 1.251034e-01 3.258690e-03 0.000000e+00
 1.909669e-01 4.445958e-03 0.000000e+00
 3.099075e-01 1.566294e-03 0.000000e+00
 1.753098e-01 7.783465e-04 0.000000e+00
 0.000000e+00 0.000000e+00 0.000000e+00
 1.175096e-01 4.105972e-03 0.000000e+00
 0.000000e+00 0.000000e+00 0.000000e+00
 3.083629e-03 -9.876304e-02 0.000000e+00
 2.639291e-03 -1.069524e-01 0.000000e+00
 0.000000e+00 0.000000e+00 0.000000e+00
 2.072355e-02 -2.612757e-01 0.000000e+00
 1.798181e-02 -2.796989e-01 0.000000e+00
 3.114582e-02 -3.297851e-01 0.000000e+00
 8.124627e-04 -1.844000e-01 0.000000e+00
 1.420785e-03 -1.866535e-01 0.000000e+00
 0.000000e+00 0.000000e+00 0.000000e+00
 2.789676e-02 -1.892882e-01 0.000000e+00
 5.288411e-03 -8.016124e-02 0.000000e+00
 1.108365e-02 -1.347522e-01 0.000000e+00
 4.790586e-01 5.522401e-03 0.000000e+00
 4.838455e-01 4.069505e-03 0.000000e+00
 4.679953e-01 3.650042e-03 0.000000e+00
 1.325047e-01 4.776692e-03 0.000000e+00
 1.362037e-01 5.702946e-03 0.000000e+00
 0.000000e+00 0.000000e+00 0.000000e+00
 5.313197e-03 -6.670693e-02 0.000000e+00
 0.000000e+00 0.000000e+00 0.000000e+00
 9.545172e-03 -5.663427e-02 0.000000e+00
 9.587208e-03 -7.490643e-02 0.000000e+00
 0.000000e+00 0.000000e+00 0.000000e+00
 3.212741e-03 -4.826852e-01 0.000000e+00
 3.226345e-03 -4.812709e-01 0.000000e+00
 2.681471e-03 -4.836407e-01 0.000000e+00
 1.962028e-03 -4.084264e-01 0.000000e+00
 2.638351e-03 -4.642925e-01 0.000000e+00
 2.173004e-03 -4.496005e-01 0.000000e+00
 3.315134e-01 1.378023e-03 0.000000e+00
 2.287404e-01 5.572538e-04 0.000000e+00
 1.746093e-01 8.907541e-04 0.000000e+00
 1.764737e-01 1.048079e-03 0.000000e+00
 0.000000e+00 0.000000e+00 0.000000e+00
 4.932612e-01 -5.892126e-03 0.000000e+00
 4.910341e-01 -2.175053e-02 0.000000e+00
 4.969291e-01 -1.244240e-02 0.000000e+00
 4.808385e-01 4.651425e-03 0.000000e+00
 4.842101e-01 3.292641e-03 0.000000e+00
 2.054074e-03 -3.736683e-01 0.000000e+00
 1.270700e-03 -3.298603e-01 0.000000e+00
 7.038761e-04 -2.294705e-01 0.000000e+00
 2.481850e-01 -1.668445e-01 0.000000e+00
 2.107808e-01 -1.993822e-01 0.000000e+00
 2.645128e-01 -2.205101e-01 0.000000e+00
 1.603233e-01 -1.812083e-01 0.000000e+00
 1.708029e-01 -2.329863e-01 0.000000e+00
 6.449741e-02 -4.460350e-01 0.000000e+00
 4.635607e-02 -4.571372e-01 0.000000e+00
 6.155611e-02 -4.677319e-01 0.000000e+00
 3.904514e-01 2.954285e-03 0.000000e+00
 4.187902e-01 2.629234e-03 0.000000e+00
 4.745126e-01 -1.609527e-02 0.000000e+00
 4.955517e-01 -2.213049e-02 0.000000e+00
 4.933042e-01 -3.415639e-02 0.000000e+00
 4.111799e-01 4.695168e-03 0.000000e+00
 4.612326e-01 5.494296e-03 0.000000e+00
 4.327797e-01 3.274751e-03 0.000000e+00
 2.913489e-02 -4.841873e-01 0.000000e+00
 4.000143e-02 -4.834813e-01 0.000000e+00
 3.237379e-02 -4.808918e-01 0.000000e+00
 3.162965e-03 -3.888717e-01 0.000000e+00
 1.663611e-03 -2.973470e-01 0.000000e+00
 4.745102e-01 -1.339599e-01 0.000000e+00
 4.491558e-01 -1.837593e-01 0.000000e+00
 4.751983e-01 -1.621297e-01 0.000000e+00
 5.837224e-03 -1.665579e-02 0.000000e+00
 6.619540e-03 -3.082267e-02 0.000000e+00
 0.000000e+00 0.000000e+00 0.000000e+00
 4.473486e-01 2.150893e-03 0.000000e+00
 7.468840e-02 -1.723095e-01 0.000000e+00
 1.100027e-01 -1.554750e-01 0.000000e+00
 6.287365e-02 -1.238146e-01 0.000000e+00
 4.811584e-01 -9.823922e-02 0.000000e+00
 4.967283e-01 -6.521712e-02 0.000000e+00
 4.868741e-01 -6.038488e-02 0.000000e+00
 4.251884e-01 -9.984725e-02 0.000000e+00
 4.363007e-01 -6.205417e-02 0.000000e+00
 3.974745e-01 -7.195635e-02 0.000000e+00
 2.733807e-03 -3.865276e-01 0.000000e+00
 1.267097e-03 -3.269958e-01 0.000000e+00
 6.423842e-03 -4.761407e-01 0.000000e+00
 9.748129e-03 -4.687787e-01 0.000000e+00
 8.703275e-03 -4.826920e-01 0.000000e+00
 2.388310e-02 -4.434815e-01 0.000000e+00
 3.003370e-02 -4.687622e-01 0.000000e+00
 3.505019e-02 -4.544193e-01 0.000000e+00
 3.765663e-02 -2.759204e-01 0.000000e+00
 5.910439e-02 -3.457856e-01 0.000000e+00
 6.291256e-02 -3.117238e-01 0.000000e+00
 1.227866e-01 -4.442807e-01 0.000000e+00
 1.266679e-01 -3.977590e-01 0.000000e+00
 9.203684e-02 -4.161295e-01 0.000000e+00
 2.954844e-01 -4.276110e-01 0.000000e+00
 2.028287e-01 -4.157592e-01 0.000000e+00
 2.930578e-01 2.009990e-03 0.000000e+00
 0.000000e+00 0.000000e+00 0.000000e+00
 3.896043e-01 6.805296e-03 0.000000e+00
 3.233351e-01 2.932599e-03 0.000000e+00
 4.474301e-01 5.387389e-03 0.000000e+00
 4.786146e-01 6.279641e-03 0.000000e+00
 4.789202e-01 6.680712e-03 0.000000e+00
 4.726226e-02 -3.572224e-01 0.000000e+00
 7.145806e-02 -3.842780e-01 0.000000e+00
 1.449453e-02 -4.494562e-01 0.000000e+00
 1.632972e-02 -4.317228e-01 0.000000e+00
 1.097278e-02 -4.129084e-01 0.000000e+00
 7.812222e-02 -4.802013e-01 0.000000e+00
 8.771148e-02 -4.842183e-01 0.000000e+00
 1.061677e-01 -4.712336e-01 0.000000e+00
 4.760076e-01 7.551539e-03 0.000000e+00
 4.866116e-01 7.841720e-03 0.000000e+00
 4.784268e-01 9.781515e-03 0.000000e+00
 4.391452e-01 -1.059328e-02 0.000000e+00
 4.585765e-01 -4.165651e-03 0.000000e+00
 4.007383e-01 -3.387434e-03 0.000000e+00
 4.798911e-01 9.267491e-03 0.000000e+00
 4.825196e-01 1.047110e-02 0.000000e+00
 4.904814e-01 7.476132e-03 0.000000e+00
 3.461909e-01 -1.915255e-01 0.000000e+00
 3.874996e-01 -1.493576e-01 0.000000e+00
 3.459329e-01 -1.464084e-01 0.000000e+00
 4.716983e-01 -1.177800e-01 0.000000e+00
 4.596332e-01 -1.889313e-01 0.000000e+00
 1.741236e-01 -9.335806e-02 0.000000e+00
 2.333173e-01 -1.129438e-01 0.000000e+00
 1.977102e-01 -6.214405e-02 0.000000e+00
 1.812599e-01 -2.268439e-02 0.000000e+00
 1.259258e-01 -7.167242e-03 0.000000e+00
 1.348476e-01 -2.604205e-01 0.000000e+00
 9.520075e-02 -2.259941e-01 0.000000e+00
 1.041028e-01 -2.780823e-01 0.000000e+00
 4.643564e-01 -5.512748e-02 0.000000e+00
 4.347245e-01 -4.002562e-02 0.000000e+00
 8.364627e-03 -4.830819e-01 0.000000e+00
 1.319465e-02 -4.843072e-01 0.000000e+00
 1.579850e-02 -4.482846e-01 0.000000e+00
 1.702830e-02 -4.763890e-01 0.000000e+00
 1.267351e-02 -4.569183e-01 0.000000e+00
 1.803640e-02 -3.734711e-01 0.000000e+00
 2.718342e-02 -3.888017e-01 0.000000e+00
 1.700727e-02 -3.287084e-01 0.000000e+00
 5.159490e-03 -4.751210e-01 0.000000e+00
 8.908151e-02 -3.780522e-02 0.000000e+00
 7.424390e-02 -6.358454e-02 0.000000e+00
 1.227154e-01 -7.771478e-02 0.000000e+00
 2.872354e-02 -8.176942e-02 0.000000e+00
 5.392451e-02 -7.843425e-02 0.000000e+00
 6.432294e-03 -3.861720e-01 0.000000e+00
 6.625352e-03 -3.525339e-01 0.000000e+00
 1.134706e-02 -4.617358e-01 0.000000e+00
 6.613984e-03 -4.373923e-01 0.000000e+00
 7.522715e-03 -4.639042e-01 0.000000e+00
 4.718092e-01 -2.154035e-02 0.000000e+00
 4.290364e-01 -1.808958e-02 0.000000e+00
 2.790894e-01 -1.805459e-02 0.000000e+00
 3.450908e-01 -3.768332e-02 0.000000e+00
 3.517040e-01 -2.370515e-02 0.000000e+00
 6.979565e-02 -4.656759e-01 0.000000e+00
 1.091359e-01 -4.774717e-01 0.000000e+00
 4.212340e-01 -2.864158e-01 0.000000e+00
 1.739524e-01 1.041165e-03 0.000000e+00
 0.000000e+00 0.000000e+00 0.000000e+00
 3.938675e-01 -2.028893e-02 0.000000e+00
 1.103145e-01 -3.099308e-01 0.000000e+00
 8.628267e-02 -3.335232e-01 0.000000e+00
 1.143855e-01 -3.450229e-01 0.000000e+00
 2.590610e-02 -1.340377e-01 0.000000e+00
 4.090545e-02 -1.937533e-01 0.000000e+00
 5.140514e-02 -1.771268e-01 0.000000e+00
 8.617740e-03 -4.312108e-01 0.000000e+00
 4.912709e-03 -4.022321e-01 0.000000e+00
 5.506618e-03 -3.665391e-01 0.000000e+00
 2.808614e-01 -3.245832e-01 0.000000e+00
 2.542154e-01 -3.717497e-01 0.000000e+00
 3.102662e-01 -3.472083e-01 0.000000e+00
 3.562255e-02 -4.283726e-01 0.000000e+00
 3.718975e-02 -3.978071e-01 0.000000e+00
 3.520821e-03 -7.958623e-02 0.000000e+00
 3.226852e-03 -8.963777e-02 0.000000e+00
 0.000000e+00 0.000000e+00 0.000000e+00
 5.239490e-02 -4.158530e-01 0.000000e+00
 7.223137e-02 -4.296532e-01 0.000000e+00
 2.026001e-01 -3.873479e-01 0.000000e+00
 1.615535e-01 -3.690265e-01 0.000000e+00
 5.872124e-02 -2.757747e-01 0.000000e+00
 7.665251e-02 -2.666727e-01 0.000000e+00
 5.228202e-02 -2.427747e-01 0.000000e+00
 4.670856e-01 4.246236e-03 0.000000e+00
 4.877732e-01 6.425056e-03 0.000000e+00
 3.876852e-01 -5.886429e-03 0.000000e+00
 3.605049e-01 9.645227e-03 0.000000e+00
 4.398892e-01 -3.412816e-04 0.000000e+00
 4.198245e-01 -1.735319e-01 0.000000e+00
 4.137221e-01 -1.304232e-01 0.000000e+00
 4.876008e-01 -6.575167e-02 0.000000e+00
 4.336899e-01 -5.578495e-02 0.000000e+00
 2.865927e-01 -1.263703e-01 0.000000e+00
 3.634308e-01 -3.334666e-01 0.000000e+00
 3.246544e-01 -3.917143e-01 0.000000e+00
 0.000000e+00 0.000000e+00 0.000000e+00
 5.313087e-02 -4.835237e-01 0.000000e+00
 4.561842e-02 -4.813484e-01 0.000000e+00
 3.108407e-02 -4.701262e-01 0.000000e+00
 4.006972e-02 -4.663020e-01 0.000000e+00
 1.735076e-02 -4.817866e-01 0.000000e+00
 1.810071e-02 -4.837255e-01 0.000000e+00
 4.122846e-01 1.306121e-02 0.000000e+00
 4.438534e-01 1.284675e-02 0.000000e+00
 3.792683e-01 1.385794e-02 0.000000e+00
 4.893673e-01 -1.985939e-03 0.000000e+00
 4.583176e-01 3.819443e-03 0.000000e+00
 4.725812e-01 5.912931e-03 0.000000e+00
 3.910976e-01 4.010387e-03 0.000000e+00
 3.980770e-01 3.848250e-03 0.000000e+00
 2.484024e-01 1.012930e-02 0.000000e+00
 3.425614e-01 1.311950e-02 0.000000e+00
 4.533657e-01 1.142321e-02 0.000000e+00
 1.431343e-01 -1.296826e-01 0.000000e+00
 1.408497e-01 -4.674682e-01 0.000000e+00
 1.623506e-01 -4.793501e-01 0.000000e+00
 9.771203e-03 -3.575263e-01 0.000000e+00
 1.640122e-02 -3.843157e-01 0.000000e+00
 1.630153e-02 -4.239711e-01 0.000000e+00
 3.730430e-03 -2.582805e-01 0.000000e+00
 4.369194e-02 -4.449600e-01 0.000000e+00
 2.529643e-02 -4.044889e-01 0.000000e+00
 2.180336e-01 -4.615175e-02 0.000000e+00
 2.419712e-01 -2.728380e-02 0.000000e+00
 2.436377e-01 -4.840183e-02 0.000000e+00
 7.628587e-03 -1.957561e-01 0.000000e+00
 1.462370e-02 -2.852405e-01 0.000000e+00
 6.269980e-03 -2.697679e-01 0.000000e+00
 7.342657e-03 -3.224030e-01 0.000000e+00
 1.143942e-02 -3.472094e-01 0.000000e+00
 2.288106e-02 -4.765276e-01 0.000000e+00
 1.620363e-02 -4.703712e-01 0.000000e+00
 1.787321e-02 -4.065091e-01 0.000000e+00
 4.807590e-01 -2.943922e-03 0.000000e+00
 4.617339e-01 7.870525e-04 0.000000e+00
 3.904885e-01 3.400764e-03 0.000000e+00
 3.768081e-01 2.022665e-03 0.000000e+00
 4.361351e-01 3.037090e-03 0.000000e+00
 4.578393e-03 -4.429837e-01 0.000000e+00
 4.303523e-03 -4.727723e-01 0.000000e+00
 2.165019e-03 -3.031645e-01 0.000000e+00
 4.267016e-03 -3.895234e-01 0.000000e+00
 1.540078e-01 -4.600181e-01 0.000000e+00
 1.988461e-01 -4.523422e-01 0.000000e+00
 2.545108e-01 -4.391575e-01 0.000000e+00
 2.185735e-01 -4.156039e-01 0.000000e+00
 3.246258e-01 -2.148614e-02 0.000000e+00
 4.563956e-01 -1.123806e-01 0.000000e+00
 4.040765e-01 9.984978e-03 0.000000e+00
 4.854979e-01 -3.806781e-02 0.000000e+00
 3.205801e-01 -2.352757e-01 0.000000e+00
 2.749703e-01 -2.767712e-01 0.000000e+00