<?xml version="1.0"?>
<VTKFile type="UnstructuredGrid"  version="0.1"  >
<UnstructuredGrid>
<Piece  NumberOfPoints="505" NumberOfCells="928">
<Points>
<DataArray  type="Float32"  NumberOfComponents="3"  format="ascii">
0 0 0
1 0 0
0 1 0
1 0.5 0
0.5 0.5 0
0.5 1 0
0.1 0 0
0.2 0 0
0.3 0 0
0.4 0 0
0.5 0 0
0.6 0 0
0.7 0 0
0.8 0 0
0.9 0 0
0 0.9 0
0 0.8 0
0 0.7 0
0 0.6 0
0 0.5 0
0 0.4 0
0 0.3 0
0 0.2 0
0 0.1 0
0.9 0.5 0
0.8 0.5 0
0.7 0.5 0
0.6 0.5 0
0.5 0.6 0
0.5 0.7 0
0.5 0.8 0
0.5 0.9 0
0.1 1 0
0.2 1 0
0.3 1 0
0.4 1 0
1 0.1 0
1 0.2 0
1 0.3 0
1 0.4 0
0.300178 0.296564 0
0.247566 0.664879 0
0.639694 0.259804 0
0.06564 0.06472 0
0.04439 0.954144 0
0.932418 0.064715 0
0.951013 0.456419 0
0.437622 0.939659 0
0.195334 0.464441 0
0.483382 0.329596 0
0.834786 0.236295 0
0.307228 0.81139 0
0.178229 0.173372 0
0.366998 0.134199 0
0.547485 0.14214 0
0.124832 0.74927 0
0.160163 0.896658 0
0.342556 0.535243 0
0.147651 0.342018 0
0.729803 0.127878 0
0.725981 0.357775 0
0.121369 0.600441 0
0.372954 0.70814 0
0.908503 0.151525 0
0.89851 0.333305 0
0.556275 0.400898 0
0.259184 0.092178 0
0.46329 0.194362 0
0.423773 0.869712 0
0.22823 0.818162 0
0.081292 0.144905 0
0.082979 0.831935 0
0.549999 0.065419 0
0.371537 0.407588 0
0.642628 0.097865 0
0.459835 0.086595 0
0.108565 0.418567 0
0.273082 0.902112 0
0.256598 0.556659 0
0.11951 0.509541 0
0.234147 0.370527 0
0.097453 0.253261 0
0.638438 0.342389 0
0.554656 0.224779 0
0.373432 0.237603 0
0.339663 0.62579 0
0.27079 0.747786 0
0.733958 0.266592 0
0.928527 0.244458 0
0.853116 0.071497 0
0.818426 0.404817 0
0.280194 0.200604 0
0.417859 0.565185 0
0.147241 0.079056 0
0.389149 0.789957 0
0.42808 0.654642 0
0.343469 0.059202 0
0.086765 0.684153 0
0.162043 0.675011 0
0.809252 0.14201 0
0.364337 0.928607 0
0.077532 0.916553 0
0.159064 0.807906 0
0.302124 0.454032 0
0.205909 0.272176 0
0.449664 0.407415 0
0.66041 0.423241 0
0.562201 0.303789 0
0.802658 0.320211 0
0.614551 0.182931 0
0.390944 0.331035 0
0.687136 0.18846 0
0.070577 0.342498 0
0.741087 0.437361 0
0.176989 0.547528 0
0.710251 0.07409 0
0.192845 0.608574 0
0.171114 0.398277 0
0.058959 0.753084 0
0.904 0.425508 0
0.438039 0.730373 0
0.057223 0.475897 0
0.058502 0.552106 0
0.330493 0.750997 0
0.312295 0.699131 0
0.684882 0.307111 0
0.053312 0.627311 0
0.198798 0.743695 0
0.392326 0.069953 0
0.351519 0.860283 0
0.397134 0.477694 0
0.319385 0.371198 0
0.767351 0.069505 0
0.441954 0.271171 0
0.759504 0.192785 0
0.855661 0.457701 0
0.500847 0.264652 0
0.916209 0.0323575 0
0.966209 0.0323575 0
0.95 0 0
0.578137 0.450449 0
0.528137 0.450449 0
0.55 0.5 0
0.03282 0.08236 0
0.03282 0.03236 0
0 0.05 0
0.502969 0.404157 0
0.474832 0.453708 0
0.468811 0.91983 0
0.468811 0.96983 0
0.5 0.95 0
0.072195 0.977072 0
0.022195 0.977072 0
0.05 1 0
0.022195 0.927072 0
0 0.95 0
0.060961 0.935348 0
0.038766 0.908276 0
0.106441 0.071888 0
0.123621 0.039528 0
0.08282 0.03236 0
0.0414895 0.815967 0
0.0414895 0.865968 0
0 0.85 0
0.173621 0.039528 0
0.15 0 0
0.05 0 0
0.301327 0.07569 0
0.321735 0.029601 0
0.279592 0.046089 0
0.070969 0.792509 0
0.0294795 0.776542 0
0.0294795 0.726542 0
0 0.75 0
0.114267 0.111981 0
0.073466 0.104813 0
0.229592 0.046089 0
0.25 0 0
0.371735 0.029601 0
0.35 0 0
0.479917 0.0432975 0
0.429918 0.0432975 0
0.45 0 0
0.461562 0.140479 0
0.413416 0.110397 0
0.415144 0.16428 0
0.574999 0.0327095 0
0.525 0.0327095 0
0.55 0 0
0.596313 0.081642 0
0.621314 0.0489325 0
0.927507 0.440964 0
0.902 0.462754 0
0.925507 0.47821 0
0.0700385 0.655732 0
0.026656 0.663655 0
0.0433825 0.692076 0
0.026656 0.613655 0
0 0.65 0
0.276766 0.370862 0
0.309781 0.333881 0
0.267162 0.333545 0
0.458929 0.582593 0
0.458929 0.532593 0
0.5 0.55 0
0.422969 0.609913 0
0.46404 0.627321 0
0.43306 0.692508 0
0.46902 0.715186 0
0.46404 0.677321 0
0.46902 0.765186 0
0.5 0.75 0
0.180082 0.948329 0
0.130082 0.948329 0
0.15 1 0
0.87983 0.441605 0
0.87783 0.478851 0
0.975507 0.42821 0
0.975507 0.47821 0
1 0.45 0
0.676439 0.0859775 0
0.705125 0.037045 0
0.671314 0.0489325 0
0.779756 0.421089 0
0.770544 0.46868 0
0.809213 0.452408 0
0.738801 0.0717975 0
0.733675 0.0347525 0
0.95 0.5 0
0.720544 0.46868 0
0.75 0.5 0
0.029251 0.526053 0
0.029251 0.576053 0
0 0.55 0
0.089006 0.530824 0
0.0899355 0.576273 0
0.12044 0.554991 0
0.461886 0.884856 0
0.461886 0.834856 0
0.5 0.85 0
0.089571 0.380533 0
0.0352885 0.371249 0
0.0542825 0.409284 0
0.918515 0.197991 0
0.964263 0.222229 0
0.954252 0.175762 0
0.630205 0.46162 0
0.680205 0.46162 0
0.65 0.5 0
0.0352885 0.321249 0
0 0.35 0
0.0487265 0.226631 0
0.0487265 0.276631 0
0 0.25 0
0.286541 0.951056 0
0.236541 0.951056 0
0.25 1 0
0.382169 0.964303 0
0.332168 0.964303 0
0.35 1 0
0.966209 0.0823575 0
1 0.05 0
0.876558 0.0357485 0
0.826558 0.0357485 0
0.85 0 0
0.710547 0.227526 0
0.663415 0.224132 0
0.686826 0.263198 0
0.964263 0.272229 0
1 0.25 0
0.40098 0.934133 0
0.418811 0.96983 0
0.45 1 0
0.326813 0.219104 0
0.290186 0.248584 0
0.336805 0.267084 0
0.243052 0.23639 0
0.253043 0.28437 0
0.224721 0.582616 0
0.220205 0.636726 0
0.252082 0.610769 0
0.92046 0.10812 0
0.954252 0.125762 0
0.66166 0.32475 0
0.662288 0.283458 0
0.639066 0.301096 0
0.949255 0.366653 0
0.949255 0.316653 0
1 0.35 0
0.291542 0.723459 0
0.27993 0.682005 0
0.259178 0.706333 0
0.394055 0.89916 0
0.430698 0.904686 0
0.531524 0.28422 0
0.492115 0.297124 0
0.522791 0.316692 0
0.040646 0.122453 0
0.040646 0.172453 0
0 0.15 0
1 0.15 0
0.151681 0.262718 0
0.192069 0.222774 0
0.137841 0.213317 0
0.558428 0.264284 0
0.600947 0.281797 0
0.597175 0.242291 0
0.508973 0.20957 0
0.551071 0.183459 0
0.505387 0.168251 0
0.118847 0.906605 0
0.088766 0.958276 0
0.3123 0.881198 0
0.329373 0.835836 0
0.290155 0.856751 0
0.18042 0.709353 0
0.223182 0.704287 0
0.204805 0.669945 0
0.114037 0.464054 0
0.157422 0.486991 0
0.15195 0.441504 0
0.279361 0.505346 0
0.248729 0.459236 0
0.225966 0.51055 0
0.423399 0.442555 0
0.448567 0.488847 0
0.892767 0.068106 0
0.65 0 0
0.901255 0.379406 0
0.952 0.412754 0
0.858877 0.146767 0
0.822019 0.189153 0
0.871644 0.19391 0
0.14825 0.528535 0
0.186162 0.505985 0
0.178931 0.775801 0
0.161815 0.746482 0
0.141948 0.778588 0
0.29813 0.591225 0
0.34111 0.580516 0
0.299577 0.545951 0
0.913519 0.288882 0
0.881657 0.240376 0
0.866648 0.2848 0
0.664882 0.143162 0
0.708469 0.158169 0
0.686215 0.112871 0
0.768308 0.293401 0
0.818722 0.278253 0
0.784372 0.251443 0
0.407693 0.254387 0
0.452622 0.232766 0
0.418361 0.215983 0
0.559238 0.352343 0
0.519829 0.365247 0
0.269689 0.146391 0
0.323596 0.167402 0
0.313091 0.113188 0
0.367897 0.0645775 0
0.396163 0.0349765 0
0.220028 0.321352 0
0.17678 0.307097 0
0.190899 0.356272 0
0.584604 0.203855 0
0.581018 0.162535 0
0.250656 0.860137 0
0.267729 0.814776 0
0.359821 0.770477 0
0.31886 0.781193 0
0.348189 0.800674 0
0.124404 0.679582 0
0.141706 0.637726 0
0.104067 0.642297 0
0.216622 0.899385 0
0.203213 0.085617 0
0.162735 0.126214 0
0.218707 0.132775 0
0.0893725 0.199083 0
0.129761 0.159139 0
0.121022 0.819921 0
0.103905 0.790602 0
0.193647 0.813034 0
0.159614 0.852282 0
0.194196 0.85741 0
0.650843 0.185696 0
0.628589 0.140398 0
0.504917 0.076007 0
0.50366 0.114367 0
0.548742 0.103779 0
0.378761 0.595487 0
0.380208 0.550214 0
0.466523 0.368506 0
0.783675 0.0347525 0
0.75 0 0
0.595056 0.120002 0
0.20263 0.384402 0
0.183224 0.431359 0
0.214741 0.417484 0
0.084015 0.29788 0
0.109114 0.342258 0
0.122552 0.29764 0
0.370334 0.82512 0
0.387646 0.864998 0
0.406461 0.829835 0
0.355164 0.351116 0
0.345461 0.389393 0
0.38124 0.369312 0
0.177444 0.641792 0
0.157107 0.604507 0
0.0286115 0.437949 0
0.0286115 0.487949 0
0 0.45 0
0.184917 0.578051 0
0.216794 0.552094 0
0.310754 0.412615 0
0.268135 0.41228 0
0.13984 0.408422 0
0.159382 0.370147 0
0.128108 0.380293 0
0.784378 0.167398 0
0.797145 0.21454 0
0.649424 0.382815 0
0.693196 0.390508 0
0.682209 0.350082 0
0.471401 0.267911 0
0.482069 0.229507 0
0.600319 0.323089 0
0.597356 0.371644 0
0.370215 0.185901 0
0.420304 0.369225 0
0.410601 0.407502 0
0.5 0.65 0
0.293615 0.645334 0
0.325979 0.66246 0
0.342624 0.703635 0
0.356309 0.666965 0
0.24951 0.782974 0
0.289009 0.779588 0
0.810542 0.362514 0
0.76432 0.338993 0
0.772204 0.381296 0
0.70942 0.286852 0
0.705431 0.332443 0
0.729969 0.312184 0
0.831184 0.106754 0
0.88081 0.111511 0
0.700748 0.430301 0
0.733534 0.397568 0
0.850584 0.326758 0
0.229212 0.186988 0
0.407496 0.52144 0
0.369845 0.506468 0
0.413594 0.760165 0
0.405497 0.719256 0
0.381051 0.749049 0
0.444574 0.794979 0
0.383872 0.640216 0
0.400517 0.681391 0
0.355233 0.0967005 0
0.42608 0.078274 0
0.379662 0.102076 0
0.055907 0.589708 0
0.0873405 0.613876 0
0.072862 0.718619 0
0.0918955 0.751177 0
0.105798 0.716711 0
0.234794 0.74574 0
0.213514 0.780928 0
0.143437 0.712141 0
0.72332 0.190623 0
0.744653 0.160332 0
0.788301 0.105758 0
0.748577 0.0986915 0
0.769527 0.134944 0
0.357928 0.894445 0
0.318709 0.915359 0
0.0802555 0.874244 0
0.121571 0.864297 0
0.32234 0.494638 0
0.349629 0.465863 0
0.384335 0.442641 0
0.336831 0.43081 0
0.608343 0.412069 0
0.527752 0.244716 0
0.858468 0.369061 0
0.627123 0.221367 0
0.382188 0.284319 0
0.345561 0.3138 0
0.437163 0.330315 0
0.746731 0.229689 0
0.149179 0.573985 0
0.720027 0.100984 0
0.810234 0.070501 0
0.861213 0.415162 0
0.827831 0.478851 0
0.85 0.5 0
0.082894 0.447232 0
0.0883665 0.492719 0
0.0578625 0.514002 0
0.300642 0.749391 0
0.351723 0.729569 0
0.321394 0.725064 0
0.416449 0.301103 0
0.462668 0.300384 0
0.837044 0.431259 0
</DataArray>
</Points>
<Cells>
<DataArray  type="UInt32"  Name="connectivity"  format="ascii">
1 138 139 
14 137 139 
45 137 138 
137 138 139 
4 141 142 
27 140 142 
65 140 141 
140 141 142 
0 144 145 
23 143 145 
43 143 144 
143 144 145 
4 141 147 
65 141 146 
105 146 147 
141 146 147 
5 149 150 
31 148 150 
47 148 149 
148 149 150 
2 152 153 
32 151 153 
44 151 152 
151 152 153 
2 152 155 
15 154 155 
44 152 154 
152 154 155 
15 154 157 
44 154 156 
101 156 157 
154 156 157 
6 159 160 
43 158 160 
93 158 159 
158 159 160 
15 162 163 
16 161 163 
71 161 162 
161 162 163 
6 159 165 
7 164 165 
93 159 164 
159 164 165 
[...]
<PointData  Scalars="u"> 
<DataArray  type="Float32"  Name="u"  format="ascii">
 -4.643742e-01
 0.000000e+00
 -9.367358e-01
 0.000000e+00
 -4.876088e-01
 -9.367358e-01
 -4.638502e-01
 -4.477618e-01
 -4.181975e-01
 -3.784560e-01
 -3.300149e-01
 -2.740952e-01
 -2.111363e-01
 -1.430604e-01
 -7.127366e-02
 -8.724527e-01
 -8.003215e-01
 -7.311000e-01
 -6.654237e-01
 -6.052671e-01
 -5.531649e-01
 -5.112884e-01
 -4.812098e-01
 -4.649450e-01
 -6.633393e-02
 -1.422416e-01
 -2.229665e-01
 -3.119585e-01
 -6.376589e-01
 -7.171525e-01
 -7.938815e-01
 -8.697362e-01
 -9.367358e-01
 -9.367358e-01
 -9.367358e-01
 -9.367358e-01
 0.000000e+00
 0.000000e+00
 0.000000e+00
 0.000000e+00
 -4.673420e-01
 -6.992888e-01
 -2.624426e-01
 -4.644145e-01
 -9.130291e-01
 -4.493884e-02
 -2.544010e-02
 -8.991270e-01
 -5.740638e-01
 -3.883463e-01
 -1.182513e-01
 -8.029157e-01
 -4.653452e-01
 -4.009462e-01
 -3.093086e-01
 -7.637946e-01
 -8.661664e-01
 -5.912169e-01
 -5.211585e-01
 -1.905188e-01
 -2.026545e-01
 -6.638230e-01
 -7.244272e-01
 -6.482028e-02
 -7.133450e-02
 -3.496366e-01
 -4.348099e-01
 -3.646423e-01
 -8.460535e-01
 -8.094069e-01
 -4.710872e-01
 -8.225409e-01
 -3.032348e-01
 -4.906453e-01
 -2.477150e-01
 -3.528551e-01
 -5.599086e-01
 -8.680881e-01
 -6.222651e-01
 -6.081392e-01
 -5.175956e-01
 -4.947499e-01
 -2.720766e-01
 -3.160918e-01
 -4.191160e-01
 -6.626301e-01
 -7.577233e-01
 -1.932133e-01
 -5.091706e-02
 -1.036557e-01
 -1.301291e-01
 -4.454239e-01
 -6.044649e-01
 -4.583125e-01
 -7.861206e-01
 -6.809724e-01
 -4.034321e-01
 -7.200805e-01
 -7.113958e-01
 -1.352814e-01
 -8.874634e-01
 -8.831959e-01
 -8.039608e-01
 -5.447771e-01
 -4.853278e-01
 -4.448252e-01
 -2.581030e-01
 -3.256591e-01
 -1.426772e-01
 -2.712460e-01
 -4.433026e-01
 -2.224167e-01
 -5.276698e-01
 -1.907559e-01
 -6.262246e-01
 -2.032131e-01
 -6.645122e-01
 -5.430270e-01
 -7.674992e-01
 -6.402525e-02
 -7.404579e-01
 -5.920127e-01
 -6.358557e-01
 -7.580580e-01
 -7.202182e-01
 -2.327451e-01
 -6.830320e-01
 -7.575771e-01
 -3.837044e-01
 -8.381788e-01
 -5.276090e-01
 -4.926085e-01
 -1.643590e-01
 -3.949750e-01
 -1.716049e-01
 -1.002530e-01
 -3.585196e-01
 -5.615399e-02
 -1.433958e-02
 -1.672230e-02
 -3.357020e-01
 -3.895366e-01
 -3.618278e-01
 -4.649855e-01
 -4.643796e-01
 -4.632800e-01
 -4.000608e-01
 -4.560438e-01
 -8.869550e-01
 -9.258309e-01
 -9.223954e-01
 -9.237509e-01
 -9.316595e-01
 -9.367358e-01
 -8.970437e-01
 -9.235244e-01
 -8.978425e-01
 -8.794642e-01
 -4.624702e-01
 -4.603784e-01
 -4.638233e-01
 -8.116806e-01
 -8.476227e-01
 -8.360489e-01
 -4.528858e-01
 -4.577814e-01
 -4.654611e-01
 -4.200704e-01
 -4.106162e-01
 -4.256544e-01
 -7.948847e-01
 -7.839306e-01
 -7.493067e-01
 -7.653843e-01
 -4.647382e-01
 -4.665596e-01
 -4.403381e-01
 -4.343915e-01
 -3.909089e-01
 -3.994982e-01
 -3.407428e-01
 -3.653484e-01
 -3.552064e-01
 -3.570427e-01
 -3.774512e-01
 -3.837137e-01
 -2.884011e-01
 -3.166847e-01
 -3.029568e-01
 -2.763047e-01
 -2.605372e-01
 -4.493234e-02
 -6.369180e-02
 -4.136469e-02
 -7.014083e-01
 -7.068698e-01
 -7.258980e-01
 -6.742779e-01
 -6.977131e-01
 -5.064530e-01
 -4.789262e-01
 -4.925022e-01
 -6.204853e-01
 -5.748103e-01
 -6.027008e-01
 -6.441965e-01
 -6.589475e-01
 -7.110363e-01
 -7.287164e-01
 -6.990417e-01
 -7.671933e-01
 -7.557397e-01
 -9.011834e-01
 -9.027541e-01
 -9.367358e-01
 -8.203443e-02
 -8.272109e-02
 -1.332629e-02
 -4.252409e-03
 0.000000e+00
 -2.256081e-01
 -2.069550e-01
 -2.289436e-01
 -1.601084e-01
 -1.663166e-01
 -1.363691e-01
 -1.839138e-01
 -1.879729e-01
 -1.098422e-02
 -2.067989e-01
 -1.818549e-01
 -6.205267e-01
 -6.506237e-01
 -6.345281e-01
 -6.222668e-01
 -6.498523e-01
 -6.352685e-01
 -8.584752e-01
 -8.201611e-01
 -8.318687e-01
 -5.432121e-01
 -5.404751e-01
 -5.579735e-01
 -5.810840e-02
 -2.588686e-02
 -3.301831e-02
 -2.850001e-01
 -2.408740e-01
 -2.662049e-01
 -5.197758e-01
 -5.307596e-01
 -4.888895e-01
 -5.038483e-01
 -4.947103e-01
 -9.019347e-01
 -9.021149e-01
 -9.367358e-01
 -9.129034e-01
 -9.116432e-01
 -9.367358e-01
 -2.242108e-02
 0.000000e+00
 -8.692018e-02
 -1.233966e-01
 -1.073836e-01
 -2.083076e-01
 -2.417824e-01
 -2.281145e-01
 -2.538263e-02
 0.000000e+00
 -8.926663e-01
 -9.180951e-01
 -9.367358e-01
 -4.334739e-01
 -4.547313e-01
 -4.434511e-01
 -4.654987e-01
 -4.776652e-01
 -6.440244e-01
 -6.814928e-01
 -6.604972e-01
 -5.539460e-02
 -3.225735e-02
 -2.521488e-01
 -2.481419e-01
 -2.675072e-01
 -3.355170e-02
 -3.512897e-02
 0.000000e+00
 -7.391583e-01
 -7.094656e-01
 -7.282855e-01
 -8.671449e-01
 -8.725593e-01
 -3.431815e-01
 -3.726480e-01
 -3.571016e-01
 -4.685615e-01
 -4.763365e-01
 -4.711215e-01
 0.000000e+00
 -4.920604e-01
 -4.738521e-01
 -4.800834e-01
 -3.207049e-01
 -2.935951e-01
 -2.904115e-01
 -3.417058e-01
 -3.119351e-01
 -3.368960e-01
 -8.743502e-01
 -9.111221e-01
 -8.531368e-01
 -8.204478e-01
 -8.358030e-01
 -7.342638e-01
 -7.287114e-01
 -7.056362e-01
 -5.829965e-01
 -5.918489e-01
 -5.674532e-01
 -5.836270e-01
 -5.612469e-01
 -5.966918e-01
 -4.857927e-01
 -5.181612e-01
 -7.455831e-02
 -2.433703e-01
 -6.811297e-02
 -2.963699e-02
 -1.000805e-01
 -1.268759e-01
 -9.144613e-02
 -6.171781e-01
 -5.995454e-01
 -7.808363e-01
 -7.608167e-01
 -7.838180e-01
 -6.410550e-01
 -6.270535e-01
 -6.077815e-01
 -6.119665e-02
 -8.442863e-02
 -9.518361e-02
 -2.349430e-01
 -2.060966e-01
 -2.196703e-01
 -1.682950e-01
 -1.303795e-01
 -1.552867e-01
 -4.078634e-01
 -3.787413e-01
 -3.925275e-01
 -3.374678e-01
 -3.724414e-01
 -4.382948e-01
 -4.234564e-01
 -4.194014e-01
 -3.938318e-01
 -3.804778e-01
 -4.997883e-01
 -5.031232e-01
 -5.203911e-01
 -2.934089e-01
 -2.907807e-01
 -8.386784e-01
 -8.060894e-01
 -7.718848e-01
 -7.806373e-01
 -7.944900e-01
 -7.160001e-01
 -6.872184e-01
 -6.917531e-01
 -8.668323e-01
 -4.487104e-01
 -4.604435e-01
 -4.502054e-01
 -4.809252e-01
 -4.696853e-01
 -8.133103e-01
 -7.930381e-01
 -8.066626e-01
 -8.351415e-01
 -8.378858e-01
 -2.471460e-01
 -2.586314e-01
 -3.287304e-01
 -3.318513e-01
 -3.056425e-01
 -6.346953e-01
 -5.960929e-01
 -4.142525e-01
 -1.536643e-01
 -1.777085e-01
 -2.787081e-01
 -5.309826e-01
 -5.578399e-01
 -5.450834e-01
 -5.100600e-01
 -5.252487e-01
 -5.070895e-01
 -8.124065e-01
 -8.419436e-01
 -8.159720e-01
 -4.687882e-01
 -4.918480e-01
 -4.653939e-01
 -6.879717e-01
 -6.644411e-01
 -5.722295e-01
 -5.987776e-01
 -5.780622e-01
 -6.450428e-01
 -6.246271e-01
 -5.174330e-01
 -5.300107e-01
 -5.520316e-01
 -5.316699e-01
 -5.399641e-01
 -1.532925e-01
 -1.451787e-01
 -2.659240e-01
 -2.298481e-01
 -2.373749e-01
 -3.772184e-01
 -3.615017e-01
 -3.000532e-01
 -3.088410e-01
 -4.081909e-01
 -4.443688e-01
 -4.702099e-01
 -6.776588e-01
 -6.815586e-01
 -6.918946e-01
 -7.221359e-01
 -6.933853e-01
 -7.837581e-01
 -7.802008e-01
 -1.366176e-01
 -1.722486e-01
 -1.663411e-01
 -2.127217e-01
 -2.181167e-01
 -1.981789e-01
 -1.194277e-01
 -8.393831e-02
 -2.239704e-01
 -1.970913e-01
 -1.066766e-01
 -4.570571e-01
 -5.636815e-01
 -5.612444e-01
 -7.634090e-01
 -7.322195e-01
 -7.553968e-01
 -7.898024e-01
 -6.707510e-01
 -7.028327e-01
 -4.015443e-01
 -3.688710e-01
 -3.917784e-01
 -6.590391e-01
 -6.737487e-01
 -7.436669e-01
 -7.657743e-01
 -7.417824e-01
 -7.576471e-01
 -7.833909e-01
 -7.375968e-01
 -1.971826e-01
 -1.810596e-01
 -1.497026e-01
 -1.772388e-01
 -1.631256e-01
 -8.629365e-01
 -8.774233e-01
 -8.527023e-01
 -8.445830e-01
 -5.660203e-01
 -5.373568e-01
 -5.070088e-01
 -5.190982e-01
 -3.034837e-01
 -3.371104e-01
 -1.001283e-01
 -2.669565e-01
 -4.296314e-01
 -4.568375e-01
 -4.179216e-01
 -1.821603e-01
 -6.452871e-01
 -1.967669e-01
 -1.343581e-01
 -9.703555e-02
 -1.211903e-01
 -1.037191e-01
 -5.759775e-01
 -6.002751e-01
 -6.133723e-01
 -7.578204e-01
 -7.413841e-01
 -7.390986e-01
 -4.185759e-01
 -3.921474e-01
 -1.152726e-01
</DataArray> 
</PointData> 
</Piece>
</UnstructuredGrid>
</VTKFile>