<?xml version="1.0"?>
<VTKFile type="UnstructuredGrid"  version="0.1"  >
<UnstructuredGrid>
<Piece  NumberOfPoints="505" NumberOfCells="928">
<Points>
<DataArray  type="Float32"  NumberOfComponents="3"  format="ascii">
0 0 0
1 0 0
0 1 0
1 0.5 0
0.5 0.5 0
0.5 1 0
0.1 0 0
0.2 0 0
0.3 0 0
0.4 0 0
0.5 0 0
0.6 0 0
0.7 0 0
0.8 0 0
0.9 0 0
0 0.9 0
0 0.8 0
0 0.7 0
0 0.6 0
0 0.5 0
0 0.4 0
0 0.3 0
0 0.2 0
0 0.1 0
0.9 0.5 0
0.8 0.5 0
0.7 0.5 0
0.6 0.5 0
0.5 0.6 0
0.5 0.7 0
0.5 0.8 0
0.5 0.9 0
0.1 1 0
0.2 1 0
0.3 1 0
0.4 1 0
1 0.1 0
1 0.2 0
1 0.3 0
1 0.4 0
0.300178 0.296564 0
0.247566 0.664879 0
0.639694 0.259804 0
0.06564 0.06472 0
0.04439 0.954144 0
0.932418 0.064715 0
0.951013 0.456419 0
0.437622 0.939659 0
0.195334 0.464441 0
0.483382 0.329596 0
0.834786 0.236295 0
0.307228 0.81139 0
0.178229 0.173372 0
0.366998 0.134199 0
0.547485 0.14214 0
0.124832 0.74927 0
0.160163 0.896658 0
0.342556 0.535243 0
0.147651 0.342018 0
0.729803 0.127878 0
0.725981 0.357775 0
0.121369 0.600441 0
0.372954 0.70814 0
0.908503 0.151525 0
0.89851 0.333305 0
0.556275 0.400898 0
0.259184 0.092178 0
0.46329 0.194362 0
0.423773 0.869712 0
0.22823 0.818162 0
0.081292 0.144905 0
0.082979 0.831935 0
0.549999 0.065419 0
0.371537 0.407588 0
0.642628 0.097865 0
0.459835 0.086595 0
0.108565 0.418567 0
0.273082 0.902112 0
0.256598 0.556659 0
0.11951 0.509541 0
0.234147 0.370527 0
0.097453 0.253261 0
0.638438 0.342389 0
0.554656 0.224779 0
0.373432 0.237603 0
0.339663 0.62579 0
0.27079 0.747786 0
0.733958 0.266592 0
0.928527 0.244458 0
0.853116 0.071497 0
0.818426 0.404817 0
0.280194 0.200604 0
0.417859 0.565185 0
0.147241 0.079056 0
0.389149 0.789957 0
0.42808 0.654642 0
0.343469 0.059202 0
0.086765 0.684153 0
0.162043 0.675011 0
0.809252 0.14201 0
0.364337 0.928607 0
0.077532 0.916553 0
0.159064 0.807906 0
0.302124 0.454032 0
0.205909 0.272176 0
0.449664 0.407415 0
0.66041 0.423241 0
0.562201 0.303789 0
0.802658 0.320211 0
0.614551 0.182931 0
0.390944 0.331035 0
0.687136 0.18846 0
0.070577 0.342498 0
0.741087 0.437361 0
0.176989 0.547528 0
0.710251 0.07409 0
0.192845 0.608574 0
0.171114 0.398277 0
0.058959 0.753084 0
0.904 0.425508 0
0.438039 0.730373 0
0.057223 0.475897 0
0.058502 0.552106 0
0.330493 0.750997 0
0.312295 0.699131 0
0.684882 0.307111 0
0.053312 0.627311 0
0.198798 0.743695 0
0.392326 0.069953 0
0.351519 0.860283 0
0.397134 0.477694 0
0.319385 0.371198 0
0.767351 0.069505 0
0.441954 0.271171 0
0.759504 0.192785 0
0.855661 0.457701 0
0.500847 0.264652 0
0.916209 0.0323575 0
0.966209 0.0323575 0
0.95 0 0
0.578137 0.450449 0
0.528137 0.450449 0
0.55 0.5 0
0.03282 0.08236 0
0.03282 0.03236 0
0 0.05 0
0.502969 0.404157 0
0.474832 0.453708 0
0.468811 0.91983 0
0.468811 0.96983 0
0.5 0.95 0
0.072195 0.977072 0
0.022195 0.977072 0
0.05 1 0
0.022195 0.927072 0
0 0.95 0
0.060961 0.935348 0
0.038766 0.908276 0
0.106441 0.071888 0
0.123621 0.039528 0
0.08282 0.03236 0
0.0414895 0.815967 0
0.0414895 0.865968 0
0 0.85 0
0.173621 0.039528 0
0.15 0 0
0.05 0 0
0.301327 0.07569 0
0.321735 0.029601 0
0.279592 0.046089 0
0.070969 0.792509 0
0.0294795 0.776542 0
0.0294795 0.726542 0
0 0.75 0
0.114267 0.111981 0
0.073466 0.104813 0
0.229592 0.046089 0
0.25 0 0
0.371735 0.029601 0
0.35 0 0
0.479917 0.0432975 0
0.429918 0.0432975 0
0.45 0 0
0.461562 0.140479 0
0.413416 0.110397 0
0.415144 0.16428 0
0.574999 0.0327095 0
0.525 0.0327095 0
0.55 0 0
0.596313 0.081642 0
0.621314 0.0489325 0
0.927507 0.440964 0
0.902 0.462754 0
0.925507 0.47821 0
0.0700385 0.655732 0
0.026656 0.663655 0
0.0433825 0.692076 0
0.026656 0.613655 0
0 0.65 0
0.276766 0.370862 0
0.309781 0.333881 0
0.267162 0.333545 0
0.458929 0.582593 0
0.458929 0.532593 0
0.5 0.55 0
0.422969 0.609913 0
0.46404 0.627321 0
0.43306 0.692508 0
0.46902 0.715186 0
0.46404 0.677321 0
0.46902 0.765186 0
0.5 0.75 0
0.180082 0.948329 0
0.130082 0.948329 0
0.15 1 0
0.87983 0.441605 0
0.87783 0.478851 0
0.975507 0.42821 0
0.975507 0.47821 0
1 0.45 0
0.676439 0.0859775 0
0.705125 0.037045 0
0.671314 0.0489325 0
0.779756 0.421089 0
0.770544 0.46868 0
0.809213 0.452408 0
0.738801 0.0717975 0
0.733675 0.0347525 0
0.95 0.5 0
0.720544 0.46868 0
0.75 0.5 0
0.029251 0.526053 0
0.029251 0.576053 0
0 0.55 0
0.089006 0.530824 0
0.0899355 0.576273 0
0.12044 0.554991 0
0.461886 0.884856 0
0.461886 0.834856 0
0.5 0.85 0
0.089571 0.380533 0
0.0352885 0.371249 0
0.0542825 0.409284 0
0.918515 0.197991 0
0.964263 0.222229 0
0.954252 0.175762 0
0.630205 0.46162 0
0.680205 0.46162 0
0.65 0.5 0
0.0352885 0.321249 0
0 0.35 0
0.0487265 0.226631 0
0.0487265 0.276631 0
0 0.25 0
0.286541 0.951056 0
0.236541 0.951056 0
0.25 1 0
0.382169 0.964303 0
0.332168 0.964303 0
0.35 1 0
0.966209 0.0823575 0
1 0.05 0
0.876558 0.0357485 0
0.826558 0.0357485 0
0.85 0 0
0.710547 0.227526 0
0.663415 0.224132 0
0.686826 0.263198 0
0.964263 0.272229 0
1 0.25 0
0.40098 0.934133 0
0.418811 0.96983 0
0.45 1 0
0.326813 0.219104 0
0.290186 0.248584 0
0.336805 0.267084 0
0.243052 0.23639 0
0.253043 0.28437 0
0.224721 0.582616 0
0.220205 0.636726 0
0.252082 0.610769 0
0.92046 0.10812 0
0.954252 0.125762 0
0.66166 0.32475 0
0.662288 0.283458 0
0.639066 0.301096 0
0.949255 0.366653 0
0.949255 0.316653 0
1 0.35 0
0.291542 0.723459 0
0.27993 0.682005 0
0.259178 0.706333 0
0.394055 0.89916 0
0.430698 0.904686 0
0.531524 0.28422 0
0.492115 0.297124 0
0.522791 0.316692 0
0.040646 0.122453 0
0.040646 0.172453 0
0 0.15 0
1 0.15 0
0.151681 0.262718 0
0.192069 0.222774 0
0.137841 0.213317 0
0.558428 0.264284 0
0.600947 0.281797 0
0.597175 0.242291 0
0.508973 0.20957 0
0.551071 0.183459 0
0.505387 0.168251 0
0.118847 0.906605 0
0.088766 0.958276 0
0.3123 0.881198 0
0.329373 0.835836 0
0.290155 0.856751 0
0.18042 0.709353 0
0.223182 0.704287 0
0.204805 0.669945 0
0.114037 0.464054 0
0.157422 0.486991 0
0.15195 0.441504 0
0.279361 0.505346 0
0.248729 0.459236 0
0.225966 0.51055 0
0.423399 0.442555 0
0.448567 0.488847 0
0.892767 0.068106 0
0.65 0 0
0.901255 0.379406 0
0.952 0.412754 0
0.858877 0.146767 0
0.822019 0.189153 0
0.871644 0.19391 0
0.14825 0.528535 0
0.186162 0.505985 0
0.178931 0.775801 0
0.161815 0.746482 0
0.141948 0.778588 0
0.29813 0.591225 0
0.34111 0.580516 0
0.299577 0.545951 0
0.913519 0.288882 0
0.881657 0.240376 0
0.866648 0.2848 0
0.664882 0.143162 0
0.708469 0.158169 0
0.686215 0.112871 0
0.768308 0.293401 0
0.818722 0.278253 0
0.784372 0.251443 0
0.407693 0.254387 0
0.452622 0.232766 0
0.418361 0.215983 0
0.559238 0.352343 0
0.519829 0.365247 0
0.269689 0.146391 0
0.323596 0.167402 0
0.313091 0.113188 0
0.367897 0.0645775 0
0.396163 0.0349765 0
0.220028 0.321352 0
0.17678 0.307097 0
0.190899 0.356272 0
0.584604 0.203855 0
0.581018 0.162535 0
0.250656 0.860137 0
0.267729 0.814776 0
0.359821 0.770477 0
0.31886 0.781193 0
0.348189 0.800674 0
0.124404 0.679582 0
0.141706 0.637726 0
0.104067 0.642297 0
0.216622 0.899385 0
0.203213 0.085617 0
0.162735 0.126214 0
0.218707 0.132775 0
0.0893725 0.199083 0
0.129761 0.159139 0
0.121022 0.819921 0
0.103905 0.790602 0
0.193647 0.813034 0
0.159614 0.852282 0
0.194196 0.85741 0
0.650843 0.185696 0
0.628589 0.140398 0
0.504917 0.076007 0
0.50366 0.114367 0
0.548742 0.103779 0
0.378761 0.595487 0
0.380208 0.550214 0
0.466523 0.368506 0
0.783675 0.0347525 0
0.75 0 0
0.595056 0.120002 0
0.20263 0.384402 0
0.183224 0.431359 0
0.214741 0.417484 0
0.084015 0.29788 0
0.109114 0.342258 0
0.122552 0.29764 0
0.370334 0.82512 0
0.387646 0.864998 0
0.406461 0.829835 0
0.355164 0.351116 0
0.345461 0.389393 0
0.38124 0.369312 0
0.177444 0.641792 0
0.157107 0.604507 0
0.0286115 0.437949 0
0.0286115 0.487949 0
0 0.45 0
0.184917 0.578051 0
0.216794 0.552094 0
0.310754 0.412615 0
0.268135 0.41228 0
0.13984 0.408422 0
0.159382 0.370147 0
0.128108 0.380293 0
0.784378 0.167398 0
0.797145 0.21454 0
0.649424 0.382815 0
0.693196 0.390508 0
0.682209 0.350082 0
0.471401 0.267911 0
0.482069 0.229507 0
0.600319 0.323089 0
0.597356 0.371644 0
0.370215 0.185901 0
0.420304 0.369225 0
0.410601 0.407502 0
0.5 0.65 0
0.293615 0.645334 0
0.325979 0.66246 0
0.342624 0.703635 0
0.356309 0.666965 0
0.24951 0.782974 0
0.289009 0.779588 0
0.810542 0.362514 0
0.76432 0.338993 0
0.772204 0.381296 0
0.70942 0.286852 0
0.705431 0.332443 0
0.729969 0.312184 0
0.831184 0.106754 0
0.88081 0.111511 0
0.700748 0.430301 0
0.733534 0.397568 0
0.850584 0.326758 0
0.229212 0.186988 0
0.407496 0.52144 0
0.369845 0.506468 0
0.413594 0.760165 0
0.405497 0.719256 0
0.381051 0.749049 0
0.444574 0.794979 0
0.383872 0.640216 0
0.400517 0.681391 0
0.355233 0.0967005 0
0.42608 0.078274 0
0.379662 0.102076 0
0.055907 0.589708 0
0.0873405 0.613876 0
0.072862 0.718619 0
0.0918955 0.751177 0
0.105798 0.716711 0
0.234794 0.74574 0
0.213514 0.780928 0
0.143437 0.712141 0
0.72332 0.190623 0
0.744653 0.160332 0
0.788301 0.105758 0
0.748577 0.0986915 0
0.769527 0.134944 0
0.357928 0.894445 0
0.318709 0.915359 0
0.0802555 0.874244 0
0.121571 0.864297 0
0.32234 0.494638 0
0.349629 0.465863 0
0.384335 0.442641 0
0.336831 0.43081 0
0.608343 0.412069 0
0.527752 0.244716 0
0.858468 0.369061 0
0.627123 0.221367 0
0.382188 0.284319 0
0.345561 0.3138 0
0.437163 0.330315 0
0.746731 0.229689 0
0.149179 0.573985 0
0.720027 0.100984 0
0.810234 0.070501 0
0.861213 0.415162 0
0.827831 0.478851 0
0.85 0.5 0
0.082894 0.447232 0
0.0883665 0.492719 0
0.0578625 0.514002 0
0.300642 0.749391 0
0.351723 0.729569 0
0.321394 0.725064 0
0.416449 0.301103 0
0.462668 0.300384 0
0.837044 0.431259 0
</DataArray>
</Points>
<Cells>
<DataArray  type="UInt32"  Name="connectivity"  format="ascii">
1 138 139 
14 137 139 
45 137 138 
137 138 139 
4 141 142 
27 140 142 
65 140 141 
140 141 142 
0 144 145 
23 143 145 
43 143 144 
143 144 145 
4 141 147 
65 141 146 
105 146 147 
141 146 147 
5 149 150 
31 148 150 
47 148 149 
148 149 150 
2 152 153 
32 151 153 
44 151 152 
151 152 153 
2 152 155 
15 154 155 
44 152 154 
152 154 155 
15 154 157 
44 154 156 
101 156 157 
154 156 157 
6 159 160 
43 158 160 
93 158 159 
158 159 160 
15 162 163 
16 161 163 
71 161 162 
161 162 163 
6 159 165 
7 164 165 
93 159 164 
159 164 165 
[...]
<PointData  Vectors="u"> 
<DataArray  type="Float32"  Name="u"  NumberOfComponents="3" format="ascii">
 0.000000e+00 0.000000e+00 0.000000e+00
 0.000000e+00 0.000000e+00 0.000000e+00
 0.000000e+00 0.000000e+00 0.000000e+00
 0.000000e+00 0.000000e+00 0.000000e+00
 0.000000e+00 0.000000e+00 0.000000e+00
 0.000000e+00 0.000000e+00 0.000000e+00
 0.000000e+00 0.000000e+00 0.000000e+00
 0.000000e+00 0.000000e+00 0.000000e+00
 0.000000e+00 0.000000e+00 0.000000e+00
 0.000000e+00 0.000000e+00 0.000000e+00
 0.000000e+00 0.000000e+00 0.000000e+00
 0.000000e+00 0.000000e+00 0.000000e+00
 0.000000e+00 0.000000e+00 0.000000e+00
 0.000000e+00 0.000000e+00 0.000000e+00
 0.000000e+00 0.000000e+00 0.000000e+00
 0.000000e+00 0.000000e+00 0.000000e+00
 0.000000e+00 0.000000e+00 0.000000e+00
 0.000000e+00 0.000000e+00 0.000000e+00
 0.000000e+00 0.000000e+00 0.000000e+00
 0.000000e+00 0.000000e+00 0.000000e+00
 0.000000e+00 0.000000e+00 0.000000e+00
 0.000000e+00 0.000000e+00 0.000000e+00
 0.000000e+00 0.000000e+00 0.000000e+00
 0.000000e+00 0.000000e+00 0.000000e+00
 0.000000e+00 0.000000e+00 0.000000e+00
 0.000000e+00 0.000000e+00 0.000000e+00
 0.000000e+00 0.000000e+00 0.000000e+00
 0.000000e+00 0.000000e+00 0.000000e+00
 0.000000e+00 0.000000e+00 0.000000e+00
 0.000000e+00 0.000000e+00 0.000000e+00
 0.000000e+00 0.000000e+00 0.000000e+00
 0.000000e+00 0.000000e+00 0.000000e+00
 2.982461e-04 -1.230112e-01 0.000000e+00
 5.889700e-04 -1.313513e-01 0.000000e+00
 5.988923e-04 -1.331806e-01 0.000000e+00
 3.305228e-04 -1.272787e-01 0.000000e+00
 1.234937e-01 -3.047104e-04 0.000000e+00
 1.315309e-01 -6.252544e-04 0.000000e+00
 1.330183e-01 -6.462199e-04 0.000000e+00
 1.267847e-01 -3.294310e-04 0.000000e+00
 6.495968e-02 -6.436179e-02 0.000000e+00
 1.367593e-02 -1.298119e-01 0.000000e+00
 1.306466e-01 -1.633993e-02 0.000000e+00
 6.967356e-03 -6.903938e-03 0.000000e+00
 1.312922e-04 -9.090216e-02 0.000000e+00
 1.084702e-01 -3.017022e-04 0.000000e+00
 9.331277e-02 -1.539104e-04 0.000000e+00
 3.244490e-04 -1.109924e-01 0.000000e+00
 2.888241e-02 -1.015210e-01 0.000000e+00
 1.267594e-01 -5.650178e-02 0.000000e+00
 1.318723e-01 -3.510709e-03 0.000000e+00
 4.395955e-03 -1.341297e-01 0.000000e+00
 3.374785e-02 -3.288963e-02 0.000000e+00
 7.661962e-02 -2.166093e-02 0.000000e+00
 1.099307e-01 -1.426792e-02 0.000000e+00
 4.016062e-03 -1.233208e-01 0.000000e+00
 1.521741e-03 -1.295401e-01 0.000000e+00
 4.204791e-02 -1.389585e-01 0.000000e+00
 2.489813e-02 -7.182643e-02 0.000000e+00
 1.233167e-01 -4.523279e-03 0.000000e+00
 1.369529e-01 -6.839586e-03 0.000000e+00
 9.158295e-03 -1.129893e-01 0.000000e+00
 8.080279e-03 -1.377502e-01 0.000000e+00
 1.294474e-01 -1.261787e-03 0.000000e+00
 1.333860e-01 -1.630327e-03 0.000000e+00
 1.529257e-01 -3.365970e-02 0.000000e+00
 4.893894e-02 -1.397569e-02 0.000000e+00
 1.011874e-01 -2.895286e-02 0.000000e+00
 9.544350e-04 -1.199304e-01 0.000000e+00
 4.155060e-03 -1.313609e-01 0.000000e+00
 1.155672e-02 -2.344959e-02 0.000000e+00
 1.253718e-03 -1.157660e-01 0.000000e+00
 9.151028e-02 -4.665009e-03 0.000000e+00
 8.678951e-02 -1.055214e-01 0.000000e+00
 1.123186e-01 -5.375441e-03 0.000000e+00
 8.739018e-02 -9.679325e-03 0.000000e+00
 1.445221e-02 -8.425045e-02 0.000000e+00
 1.871898e-03 -1.328598e-01 0.000000e+00
 2.768433e-02 -1.236254e-01 0.000000e+00
 1.305607e-02 -1.014210e-01 0.000000e+00
 4.455073e-02 -8.298761e-02 0.000000e+00
 1.486122e-02 -4.815770e-02 0.000000e+00
 1.407760e-01 -1.650134e-02 0.000000e+00
 1.196028e-01 -2.419751e-02 0.000000e+00
 8.364874e-02 -4.571519e-02 0.000000e+00
 1.957398e-02 -1.402516e-01 0.000000e+00
 7.682981e-03 -1.328535e-01 0.000000e+00
 1.327603e-01 -8.115360e-03 0.000000e+00
 1.322980e-01 -1.382603e-03 0.000000e+00
 1.114750e-01 -7.967348e-04 0.000000e+00
 1.277983e-01 -1.865082e-03 0.000000e+00
 5.869348e-02 -3.907539e-02 0.000000e+00
 2.751563e-02 -1.507574e-01 0.000000e+00
 2.373660e-02 -1.129049e-02 0.000000e+00
 3.340313e-03 -1.324051e-01 0.000000e+00
 7.296700e-03 -1.301395e-01 0.000000e+00
 5.780815e-02 -6.757911e-03 0.000000e+00
 3.723147e-03 -1.116998e-01 0.000000e+00
 8.701353e-03 -1.233791e-01 0.000000e+00
 1.273217e-01 -2.878555e-03 0.000000e+00
 9.693386e-04 -1.324202e-01 0.000000e+00
 5.073784e-04 -1.150976e-01 0.000000e+00
 3.426342e-03 -1.281815e-01 0.000000e+00
 5.398536e-02 -1.123862e-01 0.000000e+00
 4.014593e-02 -5.704972e-02 0.000000e+00
 1.299629e-01 -9.904713e-02 0.000000e+00
 1.304335e-01 -6.091364e-03 0.000000e+00
 1.335864e-01 -3.137530e-02 0.000000e+00
 1.344828e-01 -4.255678e-03 0.000000e+00
 1.212627e-01 -1.391882e-02 0.000000e+00
 9.521247e-02 -7.309019e-02 0.000000e+00
 1.263695e-01 -9.197851e-03 0.000000e+00
 8.648167e-03 -6.120344e-02 0.000000e+00
 1.153246e-01 -2.000533e-03 0.000000e+00
 1.884908e-02 -1.130713e-01 0.000000e+00
 1.087062e-01 -2.398342e-03 0.000000e+00
 1.540020e-02 -1.212406e-01 0.000000e+00
 2.809251e-02 -8.588006e-02 0.000000e+00
 1.379505e-03 -1.005307e-01 0.000000e+00
 1.183796e-01 -5.620279e-04 0.000000e+00
 2.715928e-03 -1.165638e-01 0.000000e+00
 4.895720e-03 -7.686366e-02 0.000000e+00
 3.937498e-03 -8.678440e-02 0.000000e+00
 6.880564e-03 -1.358025e-01 0.000000e+00
 1.106942e-02 -1.358597e-01 0.000000e+00
 1.359627e-01 -1.180509e-02 0.000000e+00
 2.433496e-03 -8.967725e-02 0.000000e+00
 6.771109e-03 -1.287497e-01 0.000000e+00
 7.089124e-02 -8.108617e-03 0.000000e+00
 2.334747e-03 -1.337210e-01 0.000000e+00
 7.874898e-02 -1.429495e-01 0.000000e+00
 6.926654e-02 -8.803410e-02 0.000000e+00
 1.082807e-01 -1.493750e-03 0.000000e+00
 1.047834e-01 -4.865478e-02 0.000000e+00
 1.291224e-01 -5.659735e-03 0.000000e+00
 9.270627e-02 -3.546192e-04 0.000000e+00
 1.172699e-01 -3.813187e-02 0.000000e+00
 7.489946e-02 -1.226359e-04 0.000000e+00
 7.524981e-02 -6.976891e-05 0.000000e+00
 0.000000e+00 0.000000e+00 0.000000e+00
 1.250231e-01 -1.201736e-02 0.000000e+00
 1.458416e-01 -5.234250e-02 0.000000e+00
 0.000000e+00 0.000000e+00 0.000000e+00
 2.758920e-03 -6.571573e-03 0.000000e+00
 1.648840e-03 -1.631621e-03 0.000000e+00
 0.000000e+00 0.000000e+00 0.000000e+00
 1.527631e-01 -6.920918e-02 0.000000e+00
 1.379833e-01 -1.149111e-01 0.000000e+00
 1.460094e-04 -7.616459e-02 0.000000e+00
 1.011516e-04 -7.604255e-02 0.000000e+00
 0.000000e+00 0.000000e+00 0.000000e+00
 2.067007e-04 -1.125145e-01 0.000000e+00
 4.500867e-05 -5.816875e-02 0.000000e+00
 1.114295e-04 -9.685666e-02 0.000000e+00
 8.796647e-05 -5.779441e-02 0.000000e+00
 0.000000e+00 0.000000e+00 0.000000e+00
 2.813268e-04 -1.055729e-01 0.000000e+00
 2.302842e-04 -8.443989e-02 0.000000e+00
 1.466691e-02 -9.432078e-03 0.000000e+00
 1.362265e-02 -3.915488e-03 0.000000e+00
 6.603497e-03 -2.740484e-03 0.000000e+00
 4.861680e-04 -8.481232e-02 0.000000e+00
 3.437906e-04 -8.562798e-02 0.000000e+00
 0.000000e+00 0.000000e+00 0.000000e+00
 2.136686e-02 -4.083929e-03 0.000000e+00
 0.000000e+00 0.000000e+00 0.000000e+00
 0.000000e+00 0.000000e+00 0.000000e+00
 5.523642e-02 -1.012258e-02 0.000000e+00
 3.683366e-02 -2.521576e-03 0.000000e+00
 4.047285e-02 -4.856614e-03 0.000000e+00
 1.370409e-03 -1.092845e-01 0.000000e+00
 4.068058e-04 -6.852438e-02 0.000000e+00
 5.940998e-04 -6.718930e-02 0.000000e+00
 0.000000e+00 0.000000e+00 0.000000e+00
 1.832343e-02 -1.803162e-02 0.000000e+00
 9.582512e-03 -1.451384e-02 0.000000e+00
 3.242743e-02 -5.044622e-03 0.000000e+00
 0.000000e+00 0.000000e+00 0.000000e+00
 4.222546e-02 -2.270351e-03 0.000000e+00
 0.000000e+00 0.000000e+00 0.000000e+00
 6.737920e-02 -3.201753e-03 0.000000e+00
 6.129485e-02 -3.590452e-03 0.000000e+00
 0.000000e+00 0.000000e+00 0.000000e+00
 9.622279e-02 -1.898942e-02 0.000000e+00
 8.406172e-02 -1.544575e-02 0.000000e+00
 8.905588e-02 -2.605878e-02 0.000000e+00
 6.553550e-02 -1.460399e-03 0.000000e+00
 6.167514e-02 -1.844208e-03 0.000000e+00
 0.000000e+00 0.000000e+00 0.000000e+00
 1.033647e-01 -5.261689e-03 0.000000e+00
 8.519738e-02 -2.102522e-03 0.000000e+00
 1.082364e-01 -2.993656e-04 0.000000e+00
 8.594426e-02 -1.847316e-04 0.000000e+00
 5.932378e-02 -6.946853e-05 0.000000e+00
 3.173393e-03 -1.025338e-01 0.000000e+00
 7.282702e-04 -6.074442e-02 0.000000e+00
 1.281094e-03 -8.450513e-02 0.000000e+00
 9.216381e-04 -5.845525e-02 0.000000e+00
 0.000000e+00 0.000000e+00 0.000000e+00
 5.623276e-02 -8.562140e-02 0.000000e+00
 6.755372e-02 -7.575234e-02 0.000000e+00
 5.488882e-02 -7.427361e-02 0.000000e+00
 1.006628e-02 -1.165920e-01 0.000000e+00
 3.973625e-02 -1.381016e-01 0.000000e+00
 0.000000e+00 0.000000e+00 0.000000e+00
 1.383018e-02 -1.400133e-01 0.000000e+00
 3.813119e-03 -9.743347e-02 0.000000e+00
 4.366127e-03 -1.228936e-01 0.000000e+00
 1.159401e-03 -8.073102e-02 0.000000e+00
 2.067637e-03 -9.121461e-02 0.000000e+00
 7.694407e-04 -7.893677e-02 0.000000e+00
 0.000000e+00 0.000000e+00 0.000000e+00
 8.716196e-04 -1.306870e-01 0.000000e+00
 6.395423e-04 -1.277758e-01 0.000000e+00
 4.655691e-04 -1.294735e-01 0.000000e+00
 1.082561e-01 -4.809024e-04 0.000000e+00
 5.833478e-02 -9.187008e-05 0.000000e+00
 1.160941e-01 -2.386318e-04 0.000000e+00
 5.937821e-02 -5.484895e-05 0.000000e+00
 1.000163e-01 -1.405431e-04 0.000000e+00
 1.113906e-01 -3.625398e-03 0.000000e+00
 7.901781e-02 -9.404829e-04 0.000000e+00
 8.784132e-02 -1.639777e-03 0.000000e+00
 1.231105e-01 -2.008139e-03 0.000000e+00
 7.819273e-02 -5.181600e-04 0.000000e+00
 9.968490e-02 -6.943054e-04 0.000000e+00
 1.085833e-01 -1.916941e-03 0.000000e+00
 7.510322e-02 -6.832930e-04 0.000000e+00
 0.000000e+00 0.000000e+00 0.000000e+00
 7.976773e-02 -7.894015e-04 0.000000e+00
 0.000000e+00 0.000000e+00 0.000000e+00
 1.506931e-03 -5.641416e-02 0.000000e+00
 1.235991e-03 -5.978479e-02 0.000000e+00
 0.000000e+00 0.000000e+00 0.000000e+00
 7.987293e-03 -9.808488e-02 0.000000e+00
 6.772085e-03 -1.036769e-01 0.000000e+00
 1.109522e-02 -1.077462e-01 0.000000e+00
 2.727154e-04 -8.620780e-02 0.000000e+00
 4.986569e-04 -8.740213e-02 0.000000e+00
 0.000000e+00 0.000000e+00 0.000000e+00
 1.164356e-02 -7.334279e-02 0.000000e+00
 3.060865e-03 -4.669277e-02 0.000000e+00
 5.366971e-03 -6.565992e-02 0.000000e+00
 1.312797e-01 -1.422244e-03 0.000000e+00
 1.319340e-01 -8.648734e-04 0.000000e+00
 1.307994e-01 -8.341436e-04 0.000000e+00
 9.812466e-02 -2.723719e-03 0.000000e+00
 9.247785e-02 -1.583567e-03 0.000000e+00
 0.000000e+00 0.000000e+00 0.000000e+00
 3.211222e-03 -4.026913e-02 0.000000e+00
 0.000000e+00 0.000000e+00 0.000000e+00
 5.351937e-03 -3.249550e-02 0.000000e+00
 5.194913e-03 -4.067464e-02 0.000000e+00
 0.000000e+00 0.000000e+00 0.000000e+00
 9.603104e-04 -1.330399e-01 0.000000e+00
 9.798259e-04 -1.320997e-01 0.000000e+00
 6.349273e-04 -1.324202e-01 0.000000e+00
 5.132186e-04 -1.305497e-01 0.000000e+00
 7.130591e-04 -1.332788e-01 0.000000e+00
 4.921286e-04 -1.328508e-01 0.000000e+00
 1.177162e-01 -2.970831e-04 0.000000e+00
 9.731924e-02 -1.201410e-04 0.000000e+00
 7.919629e-02 -2.225195e-04 0.000000e+00
 7.866963e-02 -3.414905e-04 0.000000e+00
 0.000000e+00 0.000000e+00 0.000000e+00
 1.298986e-01 -9.126349e-03 0.000000e+00
 1.280926e-01 -1.248209e-02 0.000000e+00
 1.320861e-01 -1.163141e-02 0.000000e+00
 1.327495e-01 -8.869474e-04 0.000000e+00
 1.324179e-01 -6.782395e-04 0.000000e+00
 6.321394e-04 -1.272809e-01 0.000000e+00
 3.131249e-04 -1.211782e-01 0.000000e+00
 1.516459e-04 -1.005461e-01 0.000000e+00
 7.092613e-02 -4.278238e-02 0.000000e+00
 6.190273e-02 -5.134047e-02 0.000000e+00
 7.498663e-02 -5.540749e-02 0.000000e+00
 4.963569e-02 -4.833296e-02 0.000000e+00
 5.212043e-02 -6.079880e-02 0.000000e+00
 2.076426e-02 -1.221812e-01 0.000000e+00
 1.497115e-02 -1.258047e-01 0.000000e+00
 1.975891e-02 -1.278363e-01 0.000000e+00
 1.247115e-01 -7.359200e-04 0.000000e+00
 1.276894e-01 -5.938998e-04 0.000000e+00
 1.380279e-01 -1.394142e-02 0.000000e+00
 1.338095e-01 -1.421643e-02 0.000000e+00
 1.357234e-01 -1.733111e-02 0.000000e+00
 1.317851e-01 -7.225053e-04 0.000000e+00
 1.331686e-01 -9.585792e-04 0.000000e+00
 1.325296e-01 -5.286594e-04 0.000000e+00
 9.329210e-03 -1.341470e-01 0.000000e+00
 1.274585e-02 -1.332543e-01 0.000000e+00
 1.036002e-02 -1.317517e-01 0.000000e+00
 1.069436e-03 -1.291558e-01 0.000000e+00
 5.658318e-04 -1.157956e-01 0.000000e+00
 1.259241e-01 -3.579044e-02 0.000000e+00
 1.215015e-01 -4.629467e-02 0.000000e+00
 1.320567e-01 -4.265674e-02 0.000000e+00
 3.997872e-03 -1.356604e-02 0.000000e+00
 4.177926e-03 -2.126331e-02 0.000000e+00
 0.000000e+00 0.000000e+00 0.000000e+00
 1.298075e-01 -4.921686e-04 0.000000e+00
 2.726891e-02 -5.361792e-02 0.000000e+00
 3.704305e-02 -4.482937e-02 0.000000e+00
 2.426422e-02 -4.167231e-02 0.000000e+00
 1.258192e-01 -2.817770e-02 0.000000e+00
 1.319915e-01 -2.261264e-02 0.000000e+00
 1.261366e-01 -2.059643e-02 0.000000e+00
 1.112129e-01 -2.726429e-02 0.000000e+00
 1.145083e-01 -1.943626e-02 0.000000e+00
 1.063597e-01 -2.088100e-02 0.000000e+00
 9.749486e-04 -1.260153e-01 0.000000e+00
 3.663022e-04 -1.197627e-01 0.000000e+00
 2.229773e-03 -1.336699e-01 0.000000e+00
 3.288653e-03 -1.342511e-01 0.000000e+00
 3.018419e-03 -1.333822e-01 0.000000e+00
 7.859721e-03 -1.264643e-01 0.000000e+00
 9.693129e-03 -1.290920e-01 0.000000e+00
 1.133537e-02 -1.263887e-01 0.000000e+00
 1.413470e-02 -9.336588e-02 0.000000e+00
 2.021727e-02 -1.020057e-01 0.000000e+00
 2.185287e-02 -9.347239e-02 0.000000e+00
 3.953919e-02 -1.197800e-01 0.000000e+00
 4.027130e-02 -1.059877e-01 0.000000e+00
 2.985704e-02 -1.129230e-01 0.000000e+00
 1.088574e-01 -1.276213e-01 0.000000e+00
 9.276047e-02 -1.512406e-01 0.000000e+00
 1.102327e-01 -5.104189e-04 0.000000e+00
 0.000000e+00 0.000000e+00 0.000000e+00
 1.309592e-01 -1.121426e-03 0.000000e+00
 1.233645e-01 -4.074600e-04 0.000000e+00
 1.285883e-01 -1.992805e-03 0.000000e+00
 1.301196e-01 -3.423431e-03 0.000000e+00
 1.308474e-01 -2.275478e-03 0.000000e+00
 1.626361e-02 -1.077264e-01 0.000000e+00
 2.358834e-02 -1.080716e-01 0.000000e+00
 4.890015e-03 -1.285331e-01 0.000000e+00
 5.487997e-03 -1.266334e-01 0.000000e+00
 3.783830e-03 -1.261769e-01 0.000000e+00
 2.518428e-02 -1.332643e-01 0.000000e+00
 2.910754e-02 -1.410232e-01 0.000000e+00
 3.456180e-02 -1.301057e-01 0.000000e+00
 1.330654e-01 -1.606198e-03 0.000000e+00
 1.321404e-01 -2.286167e-03 0.000000e+00
 1.331611e-01 -2.627654e-03 0.000000e+00
 1.214604e-01 -7.840077e-03 0.000000e+00
 1.251481e-01 -6.673619e-03 0.000000e+00
 1.188836e-01 -5.108531e-03 0.000000e+00
 1.340705e-01 -6.069514e-03 0.000000e+00
 1.332079e-01 -4.070846e-03 0.000000e+00
 1.322039e-01 -5.424749e-03 0.000000e+00
 9.412759e-02 -4.786420e-02 0.000000e+00
 1.027662e-01 -3.826389e-02 0.000000e+00
 9.322181e-02 -3.724589e-02 0.000000e+00
 1.444748e-01 -3.510702e-02 0.000000e+00
 1.445598e-01 -5.153865e-02 0.000000e+00
 5.504424e-02 -2.623057e-02 0.000000e+00
 6.833105e-02 -3.020412e-02 0.000000e+00
 6.304243e-02 -1.821025e-02 0.000000e+00
 6.445178e-02 -7.520331e-03 0.000000e+00
 5.145989e-02 -2.850425e-03 0.000000e+00
 4.288520e-02 -6.969476e-02 0.000000e+00
 3.234728e-02 -6.500146e-02 0.000000e+00
 3.451274e-02 -7.706843e-02 0.000000e+00
 1.205731e-01 -1.850238e-02 0.000000e+00
 1.161374e-01 -1.443499e-02 0.000000e+00
 2.943678e-03 -1.322814e-01 0.000000e+00
 4.450418e-03 -1.328102e-01 0.000000e+00
 5.111571e-03 -1.354448e-01 0.000000e+00
 5.546751e-03 -1.348787e-01 0.000000e+00
 4.160385e-03 -1.348430e-01 0.000000e+00
 6.205298e-03 -1.197609e-01 0.000000e+00
 9.178030e-03 -1.189293e-01 0.000000e+00
 6.062773e-03 -1.136052e-01 0.000000e+00
 1.838244e-03 -1.315038e-01 0.000000e+00
 3.604549e-02 -1.272718e-02 0.000000e+00
 2.959510e-02 -2.172272e-02 0.000000e+00
 4.258636e-02 -2.337773e-02 0.000000e+00
 1.329470e-02 -3.554058e-02 0.000000e+00
 2.226141e-02 -2.903403e-02 0.000000e+00
 2.315250e-03 -1.250094e-01 0.000000e+00
 2.388547e-03 -1.211504e-01 0.000000e+00
 3.909308e-03 -1.299442e-01 0.000000e+00
 2.385543e-03 -1.289732e-01 0.000000e+00
 2.680107e-03 -1.305649e-01 0.000000e+00
 1.241470e-01 -1.141941e-02 0.000000e+00
 1.184620e-01 -9.496003e-03 0.000000e+00
 9.078517e-02 -6.903001e-03 0.000000e+00
 1.001913e-01 -1.268835e-02 0.000000e+00
 1.044886e-01 -9.225888e-03 0.000000e+00
 2.359280e-02 -1.468420e-01 0.000000e+00
 3.855542e-02 -1.495293e-01 0.000000e+00
 1.307621e-01 -7.450224e-02 0.000000e+00
 7.658106e-02 -4.603243e-04 0.000000e+00
 0.000000e+00 0.000000e+00 0.000000e+00
 1.126515e-01 -9.191391e-03 0.000000e+00
 3.577910e-02 -8.471309e-02 0.000000e+00
 2.877195e-02 -9.357582e-02 0.000000e+00
 3.694409e-02 -9.335176e-02 0.000000e+00
 1.159936e-02 -5.587038e-02 0.000000e+00
 1.635302e-02 -6.881190e-02 0.000000e+00
 2.018088e-02 -6.043621e-02 0.000000e+00
 2.877043e-03 -1.334423e-01 0.000000e+00
 1.684056e-03 -1.307595e-01 0.000000e+00
 1.865120e-03 -1.273041e-01 0.000000e+00
 8.237160e-02 -8.183300e-02 0.000000e+00
 7.752650e-02 -9.609931e-02 0.000000e+00
 9.311661e-02 -8.898874e-02 0.000000e+00
 1.170496e-02 -1.224719e-01 0.000000e+00
 1.245593e-02 -1.176107e-01 0.000000e+00
 2.030341e-03 -4.814059e-02 0.000000e+00
 1.684941e-03 -5.236791e-02 0.000000e+00
 0.000000e+00 0.000000e+00 0.000000e+00
 1.725960e-02 -1.175062e-01 0.000000e+00
 2.347753e-02 -1.176614e-01 0.000000e+00
 6.276833e-02 -1.008448e-01 0.000000e+00
 5.015678e-02 -9.657307e-02 0.000000e+00
 2.122184e-02 -8.577569e-02 0.000000e+00
 2.676311e-02 -7.905081e-02 0.000000e+00
 1.947080e-02 -7.880383e-02 0.000000e+00
 1.284217e-01 -4.148244e-03 0.000000e+00
 1.307690e-01 -4.604291e-03 0.000000e+00
 1.415743e-01 -1.189051e-02 0.000000e+00
 1.368485e-01 -7.030138e-03 0.000000e+00
 1.390649e-01 -1.061880e-02 0.000000e+00
 1.115868e-01 -4.354887e-02 0.000000e+00
 1.087966e-01 -3.403524e-02 0.000000e+00
 1.389836e-01 -2.393232e-02 0.000000e+00
 1.465879e-01 -2.275717e-02 0.000000e+00
 8.028587e-02 -3.313361e-02 0.000000e+00
 1.105565e-01 -8.566671e-02 0.000000e+00
 1.063429e-01 -1.061966e-01 0.000000e+00
 0.000000e+00 0.000000e+00 0.000000e+00
 1.703800e-02 -1.341593e-01 0.000000e+00
 1.452906e-02 -1.376642e-01 0.000000e+00
 9.902012e-03 -1.376750e-01 0.000000e+00
 1.282760e-02 -1.400277e-01 0.000000e+00
 5.750684e-03 -1.319645e-01 0.000000e+00
 5.921228e-03 -1.337194e-01 0.000000e+00
 1.339628e-01 -3.163526e-03 0.000000e+00
 1.355561e-01 -5.453317e-03 0.000000e+00
 1.336672e-01 -3.763462e-03 0.000000e+00
 1.341635e-01 -9.871964e-03 0.000000e+00
 1.371906e-01 -9.364779e-03 0.000000e+00
 1.354839e-01 -8.010458e-03 0.000000e+00
 1.232221e-01 -1.702103e-03 0.000000e+00
 1.249274e-01 -1.163988e-03 0.000000e+00
 1.225817e-01 -3.440967e-03 0.000000e+00
 1.328592e-01 -4.389696e-03 0.000000e+00
 1.338990e-01 -2.720978e-03 0.000000e+00
 4.606025e-02 -3.610047e-02 0.000000e+00
 5.455946e-02 -1.558206e-01 0.000000e+00
 5.700627e-02 -1.425853e-01 0.000000e+00
 3.216590e-03 -1.276058e-01 0.000000e+00
 5.305771e-03 -1.326466e-01 0.000000e+00
 5.255424e-03 -1.350972e-01 0.000000e+00
 1.293699e-03 -1.083115e-01 0.000000e+00
 1.430983e-02 -1.425656e-01 0.000000e+00
 8.206832e-03 -1.368009e-01 0.000000e+00
 6.982102e-02 -1.379942e-02 0.000000e+00
 7.916121e-02 -8.940963e-03 0.000000e+00
 7.607348e-02 -1.432874e-02 0.000000e+00
 3.150313e-03 -8.870645e-02 0.000000e+00
 5.421725e-03 -1.065735e-01 0.000000e+00
 2.333491e-03 -1.076002e-01 0.000000e+00
 2.649102e-03 -1.166411e-01 0.000000e+00
 4.036614e-03 -1.186893e-01 0.000000e+00
 7.463923e-03 -1.307967e-01 0.000000e+00
 5.419990e-03 -1.302978e-01 0.000000e+00
 6.029497e-03 -1.237609e-01 0.000000e+00
 1.279705e-01 -7.261239e-03 0.000000e+00
 1.268217e-01 -5.289836e-03 0.000000e+00
 1.219056e-01 -2.338546e-03 0.000000e+00
 1.190050e-01 -2.838029e-03 0.000000e+00
 1.255891e-01 -3.656176e-03 0.000000e+00
 1.559757e-03 -1.330698e-01 0.000000e+00
 1.446554e-03 -1.335106e-01 0.000000e+00
 8.166080e-04 -1.155835e-01 0.000000e+00
 1.573021e-03 -1.258476e-01 0.000000e+00
 5.036258e-02 -1.269857e-01 0.000000e+00
 6.588853e-02 -1.258061e-01 0.000000e+00
 8.621200e-02 -1.234560e-01 0.000000e+00
 6.948215e-02 -1.108880e-01 0.000000e+00
 1.429367e-01 -1.452876e-02 0.000000e+00
 1.186182e-01 -3.062685e-02 0.000000e+00
 1.325837e-01 -1.920132e-03 0.000000e+00
 1.258251e-01 -1.570359e-02 0.000000e+00