<?xml version="1.0"?>
<VTKFile type="UnstructuredGrid"  version="0.1"  >
<UnstructuredGrid>
<Piece  NumberOfPoints="505" NumberOfCells="928">
<Points>
<DataArray  type="Float32"  NumberOfComponents="3"  format="ascii">
0 0 0
1 0 0
0 1 0
1 0.5 0
0.5 0.5 0
0.5 1 0
0.1 0 0
0.2 0 0
0.3 0 0
0.4 0 0
0.5 0 0
0.6 0 0
0.7 0 0
0.8 0 0
0.9 0 0
0 0.9 0
0 0.8 0
0 0.7 0
0 0.6 0
0 0.5 0
0 0.4 0
0 0.3 0
0 0.2 0
0 0.1 0
0.9 0.5 0
0.8 0.5 0
0.7 0.5 0
0.6 0.5 0
0.5 0.6 0
0.5 0.7 0
0.5 0.8 0
0.5 0.9 0
0.1 1 0
0.2 1 0
0.3 1 0
0.4 1 0
1 0.1 0
1 0.2 0
1 0.3 0
1 0.4 0
0.300178 0.296564 0
0.247566 0.664879 0
0.639694 0.259804 0
0.06564 0.06472 0
0.04439 0.954144 0
0.932418 0.064715 0
0.951013 0.456419 0
0.437622 0.939659 0
0.195334 0.464441 0
0.483382 0.329596 0
0.834786 0.236295 0
0.307228 0.81139 0
0.178229 0.173372 0
0.366998 0.134199 0
0.547485 0.14214 0
0.124832 0.74927 0
0.160163 0.896658 0
0.342556 0.535243 0
0.147651 0.342018 0
0.729803 0.127878 0
0.725981 0.357775 0
0.121369 0.600441 0
0.372954 0.70814 0
0.908503 0.151525 0
0.89851 0.333305 0
0.556275 0.400898 0
0.259184 0.092178 0
0.46329 0.194362 0
0.423773 0.869712 0
0.22823 0.818162 0
0.081292 0.144905 0
0.082979 0.831935 0
0.549999 0.065419 0
0.371537 0.407588 0
0.642628 0.097865 0
0.459835 0.086595 0
0.108565 0.418567 0
0.273082 0.902112 0
0.256598 0.556659 0
0.11951 0.509541 0
0.234147 0.370527 0
0.097453 0.253261 0
0.638438 0.342389 0
0.554656 0.224779 0
0.373432 0.237603 0
0.339663 0.62579 0
0.27079 0.747786 0
0.733958 0.266592 0
0.928527 0.244458 0
0.853116 0.071497 0
0.818426 0.404817 0
0.280194 0.200604 0
0.417859 0.565185 0
0.147241 0.079056 0
0.389149 0.789957 0
0.42808 0.654642 0
0.343469 0.059202 0
0.086765 0.684153 0
0.162043 0.675011 0
0.809252 0.14201 0
0.364337 0.928607 0
0.077532 0.916553 0
0.159064 0.807906 0
0.302124 0.454032 0
0.205909 0.272176 0
0.449664 0.407415 0
0.66041 0.423241 0
0.562201 0.303789 0
0.802658 0.320211 0
0.614551 0.182931 0
0.390944 0.331035 0
0.687136 0.18846 0
0.070577 0.342498 0
0.741087 0.437361 0
0.176989 0.547528 0
0.710251 0.07409 0
0.192845 0.608574 0
0.171114 0.398277 0
0.058959 0.753084 0
0.904 0.425508 0
0.438039 0.730373 0
0.057223 0.475897 0
0.058502 0.552106 0
0.330493 0.750997 0
0.312295 0.699131 0
0.684882 0.307111 0
0.053312 0.627311 0
0.198798 0.743695 0
0.392326 0.069953 0
0.351519 0.860283 0
0.397134 0.477694 0
0.319385 0.371198 0
0.767351 0.069505 0
0.441954 0.271171 0
0.759504 0.192785 0
0.855661 0.457701 0
0.500847 0.264652 0
0.916209 0.0323575 0
0.966209 0.0323575 0
0.95 0 0
0.578137 0.450449 0
0.528137 0.450449 0
0.55 0.5 0
0.03282 0.08236 0
0.03282 0.03236 0
0 0.05 0
0.502969 0.404157 0
0.474832 0.453708 0
0.468811 0.91983 0
0.468811 0.96983 0
0.5 0.95 0
0.072195 0.977072 0
0.022195 0.977072 0
0.05 1 0
0.022195 0.927072 0
0 0.95 0
0.060961 0.935348 0
0.038766 0.908276 0
0.106441 0.071888 0
0.123621 0.039528 0
0.08282 0.03236 0
0.0414895 0.815967 0
0.0414895 0.865968 0
0 0.85 0
0.173621 0.039528 0
0.15 0 0
0.05 0 0
0.301327 0.07569 0
0.321735 0.029601 0
0.279592 0.046089 0
0.070969 0.792509 0
0.0294795 0.776542 0
0.0294795 0.726542 0
0 0.75 0
0.114267 0.111981 0
0.073466 0.104813 0
0.229592 0.046089 0
0.25 0 0
0.371735 0.029601 0
0.35 0 0
0.479917 0.0432975 0
0.429918 0.0432975 0
0.45 0 0
0.461562 0.140479 0
0.413416 0.110397 0
0.415144 0.16428 0
0.574999 0.0327095 0
0.525 0.0327095 0
0.55 0 0
0.596313 0.081642 0
0.621314 0.0489325 0
0.927507 0.440964 0
0.902 0.462754 0
0.925507 0.47821 0
0.0700385 0.655732 0
0.026656 0.663655 0
0.0433825 0.692076 0
0.026656 0.613655 0
0 0.65 0
0.276766 0.370862 0
0.309781 0.333881 0
0.267162 0.333545 0
0.458929 0.582593 0
0.458929 0.532593 0
0.5 0.55 0
0.422969 0.609913 0
0.46404 0.627321 0
0.43306 0.692508 0
0.46902 0.715186 0
0.46404 0.677321 0
0.46902 0.765186 0
0.5 0.75 0
0.180082 0.948329 0
0.130082 0.948329 0
0.15 1 0
0.87983 0.441605 0
0.87783 0.478851 0
0.975507 0.42821 0
0.975507 0.47821 0
1 0.45 0
0.676439 0.0859775 0
0.705125 0.037045 0
0.671314 0.0489325 0
0.779756 0.421089 0
0.770544 0.46868 0
0.809213 0.452408 0
0.738801 0.0717975 0
0.733675 0.0347525 0
0.95 0.5 0
0.720544 0.46868 0
0.75 0.5 0
0.029251 0.526053 0
0.029251 0.576053 0
0 0.55 0
0.089006 0.530824 0
0.0899355 0.576273 0
0.12044 0.554991 0
0.461886 0.884856 0
0.461886 0.834856 0
0.5 0.85 0
0.089571 0.380533 0
0.0352885 0.371249 0
0.0542825 0.409284 0
0.918515 0.197991 0
0.964263 0.222229 0
0.954252 0.175762 0
0.630205 0.46162 0
0.680205 0.46162 0
0.65 0.5 0
0.0352885 0.321249 0
0 0.35 0
0.0487265 0.226631 0
0.0487265 0.276631 0
0 0.25 0
0.286541 0.951056 0
0.236541 0.951056 0
0.25 1 0
0.382169 0.964303 0
0.332168 0.964303 0
0.35 1 0
0.966209 0.0823575 0
1 0.05 0
0.876558 0.0357485 0
0.826558 0.0357485 0
0.85 0 0
0.710547 0.227526 0
0.663415 0.224132 0
0.686826 0.263198 0
0.964263 0.272229 0
1 0.25 0
0.40098 0.934133 0
0.418811 0.96983 0
0.45 1 0
0.326813 0.219104 0
0.290186 0.248584 0
0.336805 0.267084 0
0.243052 0.23639 0
0.253043 0.28437 0
0.224721 0.582616 0
0.220205 0.636726 0
0.252082 0.610769 0
0.92046 0.10812 0
0.954252 0.125762 0
0.66166 0.32475 0
0.662288 0.283458 0
0.639066 0.301096 0
0.949255 0.366653 0
0.949255 0.316653 0
1 0.35 0
0.291542 0.723459 0
0.27993 0.682005 0
0.259178 0.706333 0
0.394055 0.89916 0
0.430698 0.904686 0
0.531524 0.28422 0
0.492115 0.297124 0
0.522791 0.316692 0
0.040646 0.122453 0
0.040646 0.172453 0
0 0.15 0
1 0.15 0
0.151681 0.262718 0
0.192069 0.222774 0
0.137841 0.213317 0
0.558428 0.264284 0
0.600947 0.281797 0
0.597175 0.242291 0
0.508973 0.20957 0
0.551071 0.183459 0
0.505387 0.168251 0
0.118847 0.906605 0
0.088766 0.958276 0
0.3123 0.881198 0
0.329373 0.835836 0
0.290155 0.856751 0
0.18042 0.709353 0
0.223182 0.704287 0
0.204805 0.669945 0
0.114037 0.464054 0
0.157422 0.486991 0
0.15195 0.441504 0
0.279361 0.505346 0
0.248729 0.459236 0
0.225966 0.51055 0
0.423399 0.442555 0
0.448567 0.488847 0
0.892767 0.068106 0
0.65 0 0
0.901255 0.379406 0
0.952 0.412754 0
0.858877 0.146767 0
0.822019 0.189153 0
0.871644 0.19391 0
0.14825 0.528535 0
0.186162 0.505985 0
0.178931 0.775801 0
0.161815 0.746482 0
0.141948 0.778588 0
0.29813 0.591225 0
0.34111 0.580516 0
0.299577 0.545951 0
0.913519 0.288882 0
0.881657 0.240376 0
0.866648 0.2848 0
0.664882 0.143162 0
0.708469 0.158169 0
0.686215 0.112871 0
0.768308 0.293401 0
0.818722 0.278253 0
0.784372 0.251443 0
0.407693 0.254387 0
0.452622 0.232766 0
0.418361 0.215983 0
0.559238 0.352343 0
0.519829 0.365247 0
0.269689 0.146391 0
0.323596 0.167402 0
0.313091 0.113188 0
0.367897 0.0645775 0
0.396163 0.0349765 0
0.220028 0.321352 0
0.17678 0.307097 0
0.190899 0.356272 0
0.584604 0.203855 0
0.581018 0.162535 0
0.250656 0.860137 0
0.267729 0.814776 0
0.359821 0.770477 0
0.31886 0.781193 0
0.348189 0.800674 0
0.124404 0.679582 0
0.141706 0.637726 0
0.104067 0.642297 0
0.216622 0.899385 0
0.203213 0.085617 0
0.162735 0.126214 0
0.218707 0.132775 0
0.0893725 0.199083 0
0.129761 0.159139 0
0.121022 0.819921 0
0.103905 0.790602 0
0.193647 0.813034 0
0.159614 0.852282 0
0.194196 0.85741 0
0.650843 0.185696 0
0.628589 0.140398 0
0.504917 0.076007 0
0.50366 0.114367 0
0.548742 0.103779 0
0.378761 0.595487 0
0.380208 0.550214 0
0.466523 0.368506 0
0.783675 0.0347525 0
0.75 0 0
0.595056 0.120002 0
0.20263 0.384402 0
0.183224 0.431359 0
0.214741 0.417484 0
0.084015 0.29788 0
0.109114 0.342258 0
0.122552 0.29764 0
0.370334 0.82512 0
0.387646 0.864998 0
0.406461 0.829835 0
0.355164 0.351116 0
0.345461 0.389393 0
0.38124 0.369312 0
0.177444 0.641792 0
0.157107 0.604507 0
0.0286115 0.437949 0
0.0286115 0.487949 0
0 0.45 0
0.184917 0.578051 0
0.216794 0.552094 0
0.310754 0.412615 0
0.268135 0.41228 0
0.13984 0.408422 0
0.159382 0.370147 0
0.128108 0.380293 0
0.784378 0.167398 0
0.797145 0.21454 0
0.649424 0.382815 0
0.693196 0.390508 0
0.682209 0.350082 0
0.471401 0.267911 0
0.482069 0.229507 0
0.600319 0.323089 0
0.597356 0.371644 0
0.370215 0.185901 0
0.420304 0.369225 0
0.410601 0.407502 0
0.5 0.65 0
0.293615 0.645334 0
0.325979 0.66246 0
0.342624 0.703635 0
0.356309 0.666965 0
0.24951 0.782974 0
0.289009 0.779588 0
0.810542 0.362514 0
0.76432 0.338993 0
0.772204 0.381296 0
0.70942 0.286852 0
0.705431 0.332443 0
0.729969 0.312184 0
0.831184 0.106754 0
0.88081 0.111511 0
0.700748 0.430301 0
0.733534 0.397568 0
0.850584 0.326758 0
0.229212 0.186988 0
0.407496 0.52144 0
0.369845 0.506468 0
0.413594 0.760165 0
0.405497 0.719256 0
0.381051 0.749049 0
0.444574 0.794979 0
0.383872 0.640216 0
0.400517 0.681391 0
0.355233 0.0967005 0
0.42608 0.078274 0
0.379662 0.102076 0
0.055907 0.589708 0
0.0873405 0.613876 0
0.072862 0.718619 0
0.0918955 0.751177 0
0.105798 0.716711 0
0.234794 0.74574 0
0.213514 0.780928 0
0.143437 0.712141 0
0.72332 0.190623 0
0.744653 0.160332 0
0.788301 0.105758 0
0.748577 0.0986915 0
0.769527 0.134944 0
0.357928 0.894445 0
0.318709 0.915359 0
0.0802555 0.874244 0
0.121571 0.864297 0
0.32234 0.494638 0
0.349629 0.465863 0
0.384335 0.442641 0
0.336831 0.43081 0
0.608343 0.412069 0
0.527752 0.244716 0
0.858468 0.369061 0
0.627123 0.221367 0
0.382188 0.284319 0
0.345561 0.3138 0
0.437163 0.330315 0
0.746731 0.229689 0
0.149179 0.573985 0
0.720027 0.100984 0
0.810234 0.070501 0
0.861213 0.415162 0
0.827831 0.478851 0
0.85 0.5 0
0.082894 0.447232 0
0.0883665 0.492719 0
0.0578625 0.514002 0
0.300642 0.749391 0
0.351723 0.729569 0
0.321394 0.725064 0
0.416449 0.301103 0
0.462668 0.300384 0
0.837044 0.431259 0
</DataArray>
</Points>
<Cells>
<DataArray  type="UInt32"  Name="connectivity"  format="ascii">
1 138 139 
14 137 139 
45 137 138 
137 138 139 
4 141 142 
27 140 142 
65 140 141 
140 141 142 
0 144 145 
23 143 145 
43 143 144 
143 144 145 
4 141 147 
65 141 146 
105 146 147 
141 146 147 
5 149 150 
31 148 150 
47 148 149 
148 149 150 
2 152 153 
32 151 153 
44 151 152 
151 152 153 
2 152 155 
15 154 155 
44 152 154 
152 154 155 
15 154 157 
44 154 156 
101 156 157 
154 156 157 
6 159 160 
43 158 160 
93 158 159 
158 159 160 
15 162 163 
16 161 163 
71 161 162 
161 162 163 
6 159 165 
7 164 165 
93 159 164 
159 164 165 
[...]
<PointData  Vectors="u"> 
<DataArray  type="Float32"  Name="u"  NumberOfComponents="3" format="ascii">
 0.000000e+00 0.000000e+00 0.000000e+00
 6.534730e-02 -2.563292e-02 0.000000e+00
 2.943990e-02 -7.216648e-02 0.000000e+00
 5.006456e-02 2.354253e-02 0.000000e+00
 0.000000e+00 0.000000e+00 0.000000e+00
 -3.399884e-02 -8.763292e-02 0.000000e+00
 0.000000e+00 0.000000e+00 0.000000e+00
 0.000000e+00 0.000000e+00 0.000000e+00
 0.000000e+00 0.000000e+00 0.000000e+00
 0.000000e+00 0.000000e+00 0.000000e+00
 0.000000e+00 0.000000e+00 0.000000e+00
 0.000000e+00 0.000000e+00 0.000000e+00
 0.000000e+00 0.000000e+00 0.000000e+00
 0.000000e+00 0.000000e+00 0.000000e+00
 0.000000e+00 0.000000e+00 0.000000e+00
 0.000000e+00 0.000000e+00 0.000000e+00
 0.000000e+00 0.000000e+00 0.000000e+00
 0.000000e+00 0.000000e+00 0.000000e+00
 0.000000e+00 0.000000e+00 0.000000e+00
 0.000000e+00 0.000000e+00 0.000000e+00
 0.000000e+00 0.000000e+00 0.000000e+00
 0.000000e+00 0.000000e+00 0.000000e+00
 0.000000e+00 0.000000e+00 0.000000e+00
 0.000000e+00 0.000000e+00 0.000000e+00
 0.000000e+00 0.000000e+00 0.000000e+00
 0.000000e+00 0.000000e+00 0.000000e+00
 0.000000e+00 0.000000e+00 0.000000e+00
 0.000000e+00 0.000000e+00 0.000000e+00
 0.000000e+00 0.000000e+00 0.000000e+00
 0.000000e+00 0.000000e+00 0.000000e+00
 0.000000e+00 0.000000e+00 0.000000e+00
 0.000000e+00 0.000000e+00 0.000000e+00
 2.952852e-02 -2.333966e-01 0.000000e+00
 1.122955e-02 -3.619024e-01 0.000000e+00
 -6.733814e-03 -3.709759e-01 0.000000e+00
 -2.905320e-02 -2.519273e-01 0.000000e+00
 2.592522e-01 -1.728564e-02 0.000000e+00
 3.824302e-01 5.201856e-03 0.000000e+00
 3.667195e-01 2.015026e-02 0.000000e+00
 2.286795e-01 2.871681e-02 0.000000e+00
 1.769592e-01 -2.272958e-01 0.000000e+00
 3.325487e-02 -3.992073e-01 0.000000e+00
 4.193005e-01 -2.357396e-02 0.000000e+00
 -1.018911e-03 6.634052e-04 0.000000e+00
 3.045614e-02 -1.224696e-01 0.000000e+00
 1.868284e-01 -1.297178e-02 0.000000e+00
 1.019418e-01 2.266382e-02 0.000000e+00
 -2.937111e-02 -1.819431e-01 0.000000e+00
 6.704827e-02 -2.978418e-01 0.000000e+00
 3.469862e-01 -1.930744e-01 0.000000e+00
 4.124617e-01 2.439366e-02 0.000000e+00
 6.499841e-03 -3.917638e-01 0.000000e+00
 5.946119e-02 -7.592183e-02 0.000000e+00
 2.020894e-01 -6.828536e-02 0.000000e+00
 3.366061e-01 -3.409112e-02 0.000000e+00
 1.018261e-02 -2.792801e-01 0.000000e+00
 1.482404e-02 -3.371177e-01 0.000000e+00
 9.218483e-02 -3.913856e-01 0.000000e+00
 4.731832e-02 -1.680272e-01 0.000000e+00
 3.480902e-01 9.272064e-03 0.000000e+00
 2.888489e-01 2.192947e-02 0.000000e+00
 1.880323e-02 -2.459189e-01 0.000000e+00
 1.739101e-02 -3.316262e-01 0.000000e+00
 3.599915e-01 5.450999e-03 0.000000e+00
 3.390190e-01 2.751948e-02 0.000000e+00
 2.283528e-01 -7.334887e-02 0.000000e+00
 8.586733e-02 -3.528625e-02 0.000000e+00
 3.217802e-01 -9.993374e-02 0.000000e+00
 -9.151408e-03 -2.121232e-01 0.000000e+00
 1.099397e-02 -3.949306e-01 0.000000e+00
 8.597973e-03 -1.605200e-02 0.000000e+00
 7.690711e-03 -1.984074e-01 0.000000e+00
 1.974703e-01 -6.340827e-03 0.000000e+00
 2.097569e-01 -3.383500e-01 0.000000e+00
 2.899734e-01 -7.210956e-04 0.000000e+00
 2.103423e-01 -2.386999e-02 0.000000e+00
 2.498942e-02 -1.554678e-01 0.000000e+00
 1.223184e-03 -3.932148e-01 0.000000e+00
 6.684505e-02 -3.857100e-01 0.000000e+00
 2.541278e-02 -2.130172e-01 0.000000e+00
 1.094109e-01 -2.666668e-01 0.000000e+00
 1.871409e-02 -6.588542e-02 0.000000e+00
 3.310470e-01 -1.634045e-02 0.000000e+00
 3.969843e-01 -7.187642e-02 0.000000e+00
 2.497052e-01 -1.672311e-01 0.000000e+00
 4.464293e-02 -3.852147e-01 0.000000e+00
 1.786078e-02 -4.052716e-01 0.000000e+00
 4.116554e-01 1.758694e-02 0.000000e+00
 3.992083e-01 1.845182e-02 0.000000e+00
 2.094798e-01 2.817598e-03 0.000000e+00
 1.958523e-01 1.952404e-02 0.000000e+00
 1.493146e-01 -1.287467e-01 0.000000e+00
 4.702948e-02 -2.889010e-01 0.000000e+00
 1.822347e-02 -1.466868e-02 0.000000e+00
 3.403691e-03 -2.926866e-01 0.000000e+00
 1.379488e-02 -2.198553e-01 0.000000e+00
 1.007855e-01 -1.653140e-02 0.000000e+00
 7.076734e-03 -1.895392e-01 0.000000e+00
 2.023670e-02 -3.287515e-01 0.000000e+00
 3.621283e-01 1.318664e-02 0.000000e+00
 -1.637521e-02 -3.222017e-01 0.000000e+00
 2.125275e-02 -1.944252e-01 0.000000e+00
 1.206829e-02 -3.377825e-01 0.000000e+00
 1.325651e-01 -3.634920e-01 0.000000e+00
 8.940657e-02 -1.665408e-01 0.000000e+00
 2.569899e-01 -2.748911e-01 0.000000e+00
 1.194394e-01 7.853461e-03 0.000000e+00
 3.896070e-01 -9.302486e-02 0.000000e+00
 3.544157e-01 3.000976e-02 0.000000e+00
 3.991409e-01 -2.404610e-02 0.000000e+00
 2.671037e-01 -2.622570e-01 0.000000e+00
 4.130895e-01 1.632645e-03 0.000000e+00
 1.017987e-02 -6.724854e-02 0.000000e+00
 9.569325e-02 1.171771e-02 0.000000e+00
 4.309213e-02 -3.152492e-01 0.000000e+00
 2.305045e-01 4.736429e-03 0.000000e+00
 3.644937e-02 -3.518013e-01 0.000000e+00
 6.053588e-02 -2.309553e-01 0.000000e+00
 2.794939e-03 -1.289678e-01 0.000000e+00
 1.669236e-01 1.740192e-02 0.000000e+00
 4.727284e-03 -1.749103e-01 0.000000e+00
 6.503234e-03 -8.188638e-02 0.000000e+00
 5.788337e-03 -1.008690e-01 0.000000e+00
 1.424368e-02 -3.800042e-01 0.000000e+00
 2.589076e-02 -3.962643e-01 0.000000e+00
 3.793415e-01 4.585429e-03 0.000000e+00
 3.650682e-03 -1.013089e-01 0.000000e+00
 1.709947e-02 -3.765296e-01 0.000000e+00
 1.444131e-01 -2.064523e-02 0.000000e+00
 -4.788823e-03 -3.484281e-01 0.000000e+00
 1.479705e-01 -3.580710e-01 0.000000e+00
 1.833698e-01 -3.048311e-01 0.000000e+00
 2.123772e-01 5.474647e-03 0.000000e+00
 3.241638e-01 -1.790880e-01 0.000000e+00
 4.134178e-01 1.636264e-02 0.000000e+00
 7.562152e-02 5.861405e-03 0.000000e+00
 3.727476e-01 -1.342237e-01 0.000000e+00
 9.430230e-02 -7.468923e-03 0.000000e+00
 1.000321e-01 -2.313897e-02 0.000000e+00
 0.000000e+00 0.000000e+00 0.000000e+00
 6.372539e-02 -1.215753e-02 0.000000e+00
 1.184478e-01 -7.327802e-02 0.000000e+00
 0.000000e+00 0.000000e+00 0.000000e+00
 -7.039765e-04 3.044173e-03 0.000000e+00
 -1.776244e-03 1.770510e-03 0.000000e+00
 0.000000e+00 0.000000e+00 0.000000e+00
 2.586507e-01 -1.706494e-01 0.000000e+00
 1.712712e-01 -2.126158e-01 0.000000e+00
 -1.637451e-02 -9.659442e-02 0.000000e+00
 -3.364771e-02 -1.116436e-01 0.000000e+00
 0.000000e+00 0.000000e+00 0.000000e+00
 3.361101e-02 -1.797795e-01 0.000000e+00
 3.089670e-02 -8.636601e-02 0.000000e+00
 3.548202e-02 -1.327711e-01 0.000000e+00
 1.378943e-02 -6.066611e-02 0.000000e+00
 0.000000e+00 0.000000e+00 0.000000e+00
 2.569349e-02 -1.582417e-01 0.000000e+00
 1.211942e-02 -9.846043e-02 0.000000e+00
 4.868275e-03 -5.904342e-03 0.000000e+00
 9.654954e-04 -2.445083e-03 0.000000e+00
 -2.742193e-03 3.428170e-04 0.000000e+00
 2.112362e-03 -8.999217e-02 0.000000e+00
 4.562894e-03 -9.655191e-02 0.000000e+00
 0.000000e+00 0.000000e+00 0.000000e+00
 1.064711e-02 -5.061633e-03 0.000000e+00
 0.000000e+00 0.000000e+00 0.000000e+00
 0.000000e+00 0.000000e+00 0.000000e+00
 9.828355e-02 -2.615464e-02 0.000000e+00
 4.489933e-02 -4.795642e-03 0.000000e+00
 5.284517e-02 -1.068395e-02 0.000000e+00
 4.420632e-03 -1.638341e-01 0.000000e+00
 7.941543e-04 -5.636293e-02 0.000000e+00
 7.615889e-04 -5.393930e-02 0.000000e+00
 0.000000e+00 0.000000e+00 0.000000e+00
 1.476747e-02 -1.858094e-02 0.000000e+00
 3.592484e-03 -4.905064e-03 0.000000e+00
 3.256444e-02 -9.479475e-03 0.000000e+00
 0.000000e+00 0.000000e+00 0.000000e+00
 5.931990e-02 -4.573124e-03 0.000000e+00
 0.000000e+00 0.000000e+00 0.000000e+00
 1.221786e-01 -5.682249e-03 0.000000e+00
 1.074969e-01 -7.645428e-03 0.000000e+00
 0.000000e+00 0.000000e+00 0.000000e+00
 2.830852e-01 -5.776896e-02 0.000000e+00
 2.162195e-01 -4.432569e-02 0.000000e+00
 2.638633e-01 -8.775289e-02 0.000000e+00
 1.050489e-01 -5.991784e-04 0.000000e+00
 1.003208e-01 -1.975418e-03 0.000000e+00
 0.000000e+00 0.000000e+00 0.000000e+00
 2.471498e-01 -4.654457e-03 0.000000e+00
 1.589893e-01 1.219396e-04 0.000000e+00
 1.345869e-01 1.863466e-02 0.000000e+00
 7.503768e-02 7.837594e-03 0.000000e+00
 4.483794e-02 9.189558e-03 0.000000e+00
 5.419552e-03 -1.455424e-01 0.000000e+00
 8.169976e-04 -4.415704e-02 0.000000e+00
 1.829008e-03 -8.417022e-02 0.000000e+00
 1.063676e-03 -4.095534e-02 0.000000e+00
 0.000000e+00 0.000000e+00 0.000000e+00
 1.453283e-01 -2.902624e-01 0.000000e+00
 1.833517e-01 -2.666245e-01 0.000000e+00
 1.423107e-01 -2.527962e-01 0.000000e+00
 1.374492e-02 -1.512105e-01 0.000000e+00
 4.382377e-02 -1.913359e-01 0.000000e+00
 0.000000e+00 0.000000e+00 0.000000e+00
 2.506910e-02 -2.512819e-01 0.000000e+00
 5.854124e-03 -1.140502e-01 0.000000e+00
 8.285864e-03 -1.958253e-01 0.000000e+00
 1.772334e-03 -8.245718e-02 0.000000e+00
 3.355691e-03 -1.032300e-01 0.000000e+00
 8.428106e-04 -7.865266e-02 0.000000e+00
 0.000000e+00 0.000000e+00 0.000000e+00
 1.412670e-02 -3.491353e-01 0.000000e+00
 2.201952e-02 -2.884649e-01 0.000000e+00
 2.023870e-02 -3.128556e-01 0.000000e+00
 1.215040e-01 1.074970e-02 0.000000e+00
 3.264922e-02 2.091813e-03 0.000000e+00
 1.682779e-01 2.905179e-02 0.000000e+00
 6.463694e-02 2.422515e-02 0.000000e+00
 1.184178e-01 3.026307e-02 0.000000e+00
 2.632708e-01 3.036151e-03 0.000000e+00
 1.167294e-01 2.172695e-03 0.000000e+00
 1.588565e-01 2.040247e-03 0.000000e+00
 1.462397e-01 1.590144e-02 0.000000e+00
 3.416914e-02 4.254067e-03 0.000000e+00
 7.706229e-02 7.358991e-03 0.000000e+00
 2.218794e-01 5.462750e-03 0.000000e+00
 1.080283e-01 2.016051e-03 0.000000e+00
 0.000000e+00 0.000000e+00 0.000000e+00
 2.419115e-02 4.402040e-03 0.000000e+00
 0.000000e+00 0.000000e+00 0.000000e+00
 1.660415e-03 -3.808273e-02 0.000000e+00
 1.438480e-03 -4.316310e-02 0.000000e+00
 0.000000e+00 0.000000e+00 0.000000e+00
 1.388004e-02 -1.611229e-01 0.000000e+00
 1.215564e-02 -1.755629e-01 0.000000e+00
 2.226754e-02 -2.308624e-01 0.000000e+00
 -6.531787e-03 -1.074882e-01 0.000000e+00
 -1.116766e-03 -1.002068e-01 0.000000e+00
 0.000000e+00 0.000000e+00 0.000000e+00
 1.721575e-02 -1.089305e-01 0.000000e+00
 2.352801e-03 -2.709995e-02 0.000000e+00
 6.062106e-03 -6.098852e-02 0.000000e+00
 3.947033e-01 1.228480e-02 0.000000e+00
 3.935302e-01 1.129648e-02 0.000000e+00
 3.744364e-01 3.696540e-03 0.000000e+00
 2.352468e-02 3.423127e-03 0.000000e+00
 2.898037e-02 5.348929e-03 0.000000e+00
 0.000000e+00 0.000000e+00 0.000000e+00
 2.134805e-03 -1.995075e-02 0.000000e+00
 0.000000e+00 0.000000e+00 0.000000e+00
 3.759723e-03 -1.645182e-02 0.000000e+00
 4.214147e-03 -2.591544e-02 0.000000e+00
 0.000000e+00 0.000000e+00 0.000000e+00
 -3.441849e-03 -3.803869e-01 0.000000e+00
 5.106997e-03 -3.816408e-01 0.000000e+00
 2.547175e-03 -3.813353e-01 0.000000e+00
 -2.354634e-02 -2.868664e-01 0.000000e+00
 -1.271291e-02 -3.503121e-01 0.000000e+00
 -1.738102e-02 -3.287327e-01 0.000000e+00
 2.252579e-01 -1.865951e-02 0.000000e+00
 1.407793e-01 -2.669359e-02 0.000000e+00
 1.021682e-01 -3.433254e-04 0.000000e+00
 1.035593e-01 1.645716e-03 0.000000e+00
 0.000000e+00 0.000000e+00 0.000000e+00
 4.246409e-01 8.631104e-03 0.000000e+00
 4.238785e-01 -9.152029e-03 0.000000e+00
 4.173729e-01 1.380312e-03 0.000000e+00
 3.859677e-01 1.871811e-02 0.000000e+00
 3.891738e-01 1.362574e-02 0.000000e+00
 -2.365597e-02 -2.608784e-01 0.000000e+00
 -3.240432e-02 -2.179405e-01 0.000000e+00
 -3.673196e-02 -1.489643e-01 0.000000e+00
 1.984734e-01 -1.509815e-01 0.000000e+00
 1.655704e-01 -1.769256e-01 0.000000e+00
 2.146089e-01 -2.007373e-01 0.000000e+00
 1.195898e-01 -1.528564e-01 0.000000e+00
 1.312943e-01 -2.008081e-01 0.000000e+00
 5.032455e-02 -3.732101e-01 0.000000e+00
 3.615139e-02 -3.811488e-01 0.000000e+00
 4.794670e-02 -3.947551e-01 0.000000e+00
 2.899531e-01 -4.132385e-03 0.000000e+00
 3.147519e-01 -6.671525e-03 0.000000e+00
 3.575925e-01 -5.120294e-03 0.000000e+00
 4.054958e-01 -9.759362e-03 0.000000e+00
 3.918474e-01 -2.256951e-02 0.000000e+00
 2.907707e-01 2.624069e-02 0.000000e+00
 3.560448e-01 2.426591e-02 0.000000e+00
 3.141303e-01 2.502313e-02 0.000000e+00
 2.166999e-02 -4.030794e-01 0.000000e+00
 3.072718e-02 -4.053761e-01 0.000000e+00
 2.513081e-02 -4.044256e-01 0.000000e+00
 -1.580250e-02 -2.782029e-01 0.000000e+00
 -1.733385e-02 -1.973795e-01 0.000000e+00
 3.894011e-01 -1.187358e-01 0.000000e+00
 3.646515e-01 -1.639335e-01 0.000000e+00
 3.719426e-01 -1.407598e-01 0.000000e+00
 9.356494e-04 9.002133e-04 0.000000e+00
 1.876306e-03 -3.967059e-03 0.000000e+00
 0.000000e+00 0.000000e+00 0.000000e+00
 3.415727e-01 -5.311567e-03 0.000000e+00
 4.856098e-02 -1.205010e-01 0.000000e+00
 7.537621e-02 -1.189389e-01 0.000000e+00
 3.756161e-02 -7.915015e-02 0.000000e+00
 4.029816e-01 -8.626669e-02 0.000000e+00
 4.074905e-01 -5.328637e-02 0.000000e+00
 4.156974e-01 -4.939224e-02 0.000000e+00
 3.640466e-01 -9.041576e-02 0.000000e+00
 3.752953e-01 -5.301252e-02 0.000000e+00
 3.372875e-01 -6.385934e-02 0.000000e+00
 1.877686e-02 -2.765369e-01 0.000000e+00
 2.893967e-02 -2.148878e-01 0.000000e+00
 -2.570612e-03 -3.812223e-01 0.000000e+00
 1.061575e-03 -3.740217e-01 0.000000e+00
 2.657352e-03 -3.945794e-01 0.000000e+00
 1.908949e-02 -3.560644e-01 0.000000e+00
 2.374960e-02 -3.908964e-01 0.000000e+00
 2.746811e-02 -3.744213e-01 0.000000e+00
 2.587835e-02 -1.847190e-01 0.000000e+00
 4.386478e-02 -2.637103e-01 0.000000e+00
 4.579108e-02 -2.327273e-01 0.000000e+00
 9.544967e-02 -3.794704e-01 0.000000e+00
 9.902122e-02 -3.398748e-01 0.000000e+00
 7.141589e-02 -3.494287e-01 0.000000e+00
 2.002759e-01 -3.241961e-01 0.000000e+00
 1.188258e-01 -2.661404e-01 0.000000e+00
 1.976586e-01 -2.369140e-03 0.000000e+00
 0.000000e+00 0.000000e+00 0.000000e+00
 2.661544e-01 2.458644e-02 0.000000e+00
 2.021736e-01 2.600965e-02 0.000000e+00
 3.619910e-01 1.098242e-02 0.000000e+00
 4.049548e-01 1.864970e-02 0.000000e+00
 4.004366e-01 1.666770e-02 0.000000e+00
 3.492368e-02 -2.682751e-01 0.000000e+00
 5.458702e-02 -3.089503e-01 0.000000e+00
 1.366358e-02 -3.596905e-01 0.000000e+00
 1.411509e-02 -3.375450e-01 0.000000e+00
 1.128999e-02 -3.116018e-01 0.000000e+00
 5.996396e-02 -4.018539e-01 0.000000e+00
 6.459091e-02 -3.896872e-01 0.000000e+00
 8.121358e-02 -3.965896e-01 0.000000e+00
 3.821529e-01 2.489829e-02 0.000000e+00
 4.061425e-01 2.231355e-02 0.000000e+00
 3.884907e-01 2.788032e-02 0.000000e+00
 3.695336e-01 -8.203754e-04 0.000000e+00
 3.892755e-01 7.181273e-03 0.000000e+00
 3.222629e-01 4.378758e-03 0.000000e+00
 3.871600e-01 2.631812e-02 0.000000e+00
 3.963887e-01 2.864064e-02 0.000000e+00
 4.140819e-01 2.459945e-02 0.000000e+00
 2.879997e-01 -1.765056e-01 0.000000e+00
 3.273041e-01 -1.375868e-01 0.000000e+00
 2.897385e-01 -1.353857e-01 0.000000e+00
 3.341507e-01 -9.504263e-02 0.000000e+00
 3.218651e-01 -1.511205e-01 0.000000e+00
 1.245183e-01 -7.815853e-02 0.000000e+00
 1.810727e-01 -1.004616e-01 0.000000e+00
 1.417218e-01 -5.282372e-02 0.000000e+00
 1.222187e-01 -1.874587e-02 0.000000e+00
 7.730258e-02 -5.527765e-03 0.000000e+00
 1.014999e-01 -2.165799e-01 0.000000e+00
 6.731967e-02 -1.728509e-01 0.000000e+00
 7.680633e-02 -2.220342e-01 0.000000e+00
 4.015199e-01 -4.516445e-02 0.000000e+00
 3.718412e-01 -3.113764e-02 0.000000e+00
 6.491983e-03 -3.977922e-01 0.000000e+00
 9.076477e-03 -4.025342e-01 0.000000e+00
 8.555580e-03 -3.448318e-01 0.000000e+00
 1.007714e-02 -3.868591e-01 0.000000e+00
 4.741429e-03 -3.576712e-01 0.000000e+00
 1.339165e-02 -2.686594e-01 0.000000e+00
 2.025916e-02 -2.909336e-01 0.000000e+00
 1.192727e-02 -2.208874e-01 0.000000e+00
 8.714596e-03 -3.833624e-01 0.000000e+00
 4.711211e-02 -2.595154e-02 0.000000e+00
 4.003572e-02 -4.051523e-02 0.000000e+00
 7.869734e-02 -5.911094e-02 0.000000e+00
 1.394519e-02 -3.788301e-02 0.000000e+00
 2.853667e-02 -4.481116e-02 0.000000e+00
 1.051700e-02 -2.787228e-01 0.000000e+00
 7.927352e-03 -2.416410e-01 0.000000e+00
 1.225678e-02 -3.740157e-01 0.000000e+00
 1.286211e-02 -3.384851e-01 0.000000e+00
 1.133813e-02 -3.727174e-01 0.000000e+00
 4.082663e-01 -1.016642e-02 0.000000e+00
 3.609285e-01 -9.039944e-03 0.000000e+00
 2.095475e-01 -1.404368e-02 0.000000e+00
 2.784988e-01 -3.134297e-02 0.000000e+00
 2.812942e-01 -1.779052e-02 0.000000e+00
 4.874611e-02 -3.492605e-01 0.000000e+00
 7.582130e-02 -3.620436e-01 0.000000e+00
 3.083019e-01 -2.353049e-01 0.000000e+00
 1.037621e-01 2.021441e-03 0.000000e+00
 0.000000e+00 0.000000e+00 0.000000e+00
 3.236020e-01 -1.291271e-02 0.000000e+00
 8.344486e-02 -2.530976e-01 0.000000e+00
 6.480714e-02 -2.655670e-01 0.000000e+00
 8.771616e-02 -2.869101e-01 0.000000e+00
 1.427154e-02 -6.910191e-02 0.000000e+00
 2.567536e-02 -1.202341e-01 0.000000e+00
 3.196843e-02 -1.133084e-01 0.000000e+00
 -7.057792e-04 -3.248695e-01 0.000000e+00
 -8.526837e-03 -2.923811e-01 0.000000e+00
 -2.802554e-03 -2.534814e-01 0.000000e+00
 2.245083e-01 -2.889760e-01 0.000000e+00
 1.995001e-01 -3.249574e-01 0.000000e+00
 2.427033e-01 -3.028387e-01 0.000000e+00
 2.737949e-02 -3.421675e-01 0.000000e+00
 2.796428e-02 -3.066241e-01 0.000000e+00
 1.606544e-03 -2.672845e-02 0.000000e+00
 1.656239e-03 -3.284815e-02 0.000000e+00
 0.000000e+00 0.000000e+00 0.000000e+00
 4.015617e-02 -3.349106e-01 0.000000e+00
 5.610010e-02 -3.579729e-01 0.000000e+00
 1.592251e-01 -3.381001e-01 0.000000e+00
 1.271100e-01 -3.200782e-01 0.000000e+00
 4.113672e-02 -1.976079e-01 0.000000e+00
 5.445398e-02 -1.992629e-01 0.000000e+00
 3.540887e-02 -1.659458e-01 0.000000e+00
 3.936410e-01 1.595023e-02 0.000000e+00
 4.167653e-01 2.163361e-02 0.000000e+00
 2.346096e-01 -1.127439e-04 0.000000e+00
 2.101863e-01 1.510279e-02 0.000000e+00
 3.074731e-01 8.945983e-03 0.000000e+00
 3.503905e-01 -1.583089e-01 0.000000e+00
 3.514196e-01 -1.196221e-01 0.000000e+00
 3.701383e-01 -5.283999e-02 0.000000e+00
 2.806605e-01 -4.217081e-02 0.000000e+00
 2.326405e-01 -1.153308e-01 0.000000e+00
 2.772809e-01 -2.840979e-01 0.000000e+00
 2.379333e-01 -3.203403e-01 0.000000e+00
 0.000000e+00 0.000000e+00 0.000000e+00
 4.066095e-02 -4.038775e-01 0.000000e+00
 3.422479e-02 -3.909444e-01 0.000000e+00
 2.231329e-02 -3.727569e-01 0.000000e+00
 2.908119e-02 -3.623362e-01 0.000000e+00
 1.353027e-02 -4.025508e-01 0.000000e+00
 1.225931e-02 -4.013516e-01 0.000000e+00
 2.858693e-01 2.764287e-02 0.000000e+00
 3.254595e-01 2.749985e-02 0.000000e+00
 2.409556e-01 2.454644e-02 0.000000e+00
 3.986105e-01 1.241633e-02 0.000000e+00
 3.391976e-01 1.579599e-02 0.000000e+00
 3.680471e-01 2.047007e-02 0.000000e+00
 2.982637e-01 7.988526e-03 0.000000e+00
 3.022492e-01 3.445534e-03 0.000000e+00
 1.045797e-01 1.191611e-02 0.000000e+00
 1.956246e-01 1.982181e-02 0.000000e+00
 3.464434e-01 2.969217e-02 0.000000e+00
 1.010786e-01 -1.049897e-01 0.000000e+00
 9.135449e-02 -3.354825e-01 0.000000e+00
 1.159468e-01 -3.786593e-01 0.000000e+00
 5.026996e-03 -2.391057e-01 0.000000e+00
 1.053277e-02 -2.640762e-01 0.000000e+00
 9.755873e-03 -3.119820e-01 0.000000e+00
 7.379732e-04 -1.507740e-01 0.000000e+00
 3.043662e-02 -3.272093e-01 0.000000e+00
 1.701450e-02 -2.829702e-01 0.000000e+00
 1.582240e-01 -3.968759e-02 0.000000e+00
 1.774578e-01 -2.298204e-02 0.000000e+00
 1.820625e-01 -4.216868e-02 0.000000e+00
 4.672607e-03 -1.017200e-01 0.000000e+00
 9.892486e-03 -1.784977e-01 0.000000e+00
 4.463877e-03 -1.606401e-01 0.000000e+00
 6.304172e-03 -2.103244e-01 0.000000e+00
 8.731309e-03 -2.369793e-01 0.000000e+00
 1.823786e-02 -3.984141e-01 0.000000e+00
 1.417605e-02 -3.881903e-01 0.000000e+00
 1.416607e-02 -3.068637e-01 0.000000e+00
 4.143606e-01 1.051348e-02 0.000000e+00
 3.901807e-01 1.243505e-02 0.000000e+00
 3.011421e-01 9.365045e-03 0.000000e+00
 2.895044e-01 8.225005e-03 0.000000e+00
 3.562622e-01 1.220543e-02 0.000000e+00
 -1.077249e-02 -3.361658e-01 0.000000e+00
 -6.717453e-03 -3.719960e-01 0.000000e+00
 1.240478e-02 -1.970785e-01 0.000000e+00
 1.389567e-02 -2.817657e-01 0.000000e+00
 1.171043e-01 -3.867031e-01 0.000000e+00
 1.488476e-01 -3.762976e-01 0.000000e+00
 1.859297e-01 -3.567885e-01 0.000000e+00
 1.683130e-01 -3.564157e-01 0.000000e+00
 1.629016e-01 -1.456037e-02 0.000000e+00
 3.876148e-01 -1.010332e-01 0.000000e+00
 2.799117e-01 2.585757e-02 0.000000e+00
 4.194238e-01 -2.670573e-02 0.000000e+00
 2.634860e-01 -2.150981e-01 0.000000e+00
 2.225746e-01 -2.503316e-01 0.000000e+00