<?xml version="1.0"?>
<VTKFile type="UnstructuredGrid"  version="0.1"  >
<UnstructuredGrid>
<Piece  NumberOfPoints="505" NumberOfCells="928">
<Points>
<DataArray  type="Float32"  NumberOfComponents="3"  format="ascii">
0 0 0
1 0 0
0 1 0
1 0.5 0
0.5 0.5 0
0.5 1 0
0.1 0 0
0.2 0 0
0.3 0 0
0.4 0 0
0.5 0 0
0.6 0 0
0.7 0 0
0.8 0 0
0.9 0 0
0 0.9 0
0 0.8 0
0 0.7 0
0 0.6 0
0 0.5 0
0 0.4 0
0 0.3 0
0 0.2 0
0 0.1 0
0.9 0.5 0
0.8 0.5 0
0.7 0.5 0
0.6 0.5 0
0.5 0.6 0
0.5 0.7 0
0.5 0.8 0
0.5 0.9 0
0.1 1 0
0.2 1 0
0.3 1 0
0.4 1 0
1 0.1 0
1 0.2 0
1 0.3 0
1 0.4 0
0.300178 0.296564 0
0.247566 0.664879 0
0.639694 0.259804 0
0.06564 0.06472 0
0.04439 0.954144 0
0.932418 0.064715 0
0.951013 0.456419 0
0.437622 0.939659 0
0.195334 0.464441 0
0.483382 0.329596 0
0.834786 0.236295 0
0.307228 0.81139 0
0.178229 0.173372 0
0.366998 0.134199 0
0.547485 0.14214 0
0.124832 0.74927 0
0.160163 0.896658 0
0.342556 0.535243 0
0.147651 0.342018 0
0.729803 0.127878 0
0.725981 0.357775 0
0.121369 0.600441 0
0.372954 0.70814 0
0.908503 0.151525 0
0.89851 0.333305 0
0.556275 0.400898 0
0.259184 0.092178 0
0.46329 0.194362 0
0.423773 0.869712 0
0.22823 0.818162 0
0.081292 0.144905 0
0.082979 0.831935 0
0.549999 0.065419 0
0.371537 0.407588 0
0.642628 0.097865 0
0.459835 0.086595 0
0.108565 0.418567 0
0.273082 0.902112 0
0.256598 0.556659 0
0.11951 0.509541 0
0.234147 0.370527 0
0.097453 0.253261 0
0.638438 0.342389 0
0.554656 0.224779 0
0.373432 0.237603 0
0.339663 0.62579 0
0.27079 0.747786 0
0.733958 0.266592 0
0.928527 0.244458 0
0.853116 0.071497 0
0.818426 0.404817 0
0.280194 0.200604 0
0.417859 0.565185 0
0.147241 0.079056 0
0.389149 0.789957 0
0.42808 0.654642 0
0.343469 0.059202 0
0.086765 0.684153 0
0.162043 0.675011 0
0.809252 0.14201 0
0.364337 0.928607 0
0.077532 0.916553 0
0.159064 0.807906 0
0.302124 0.454032 0
0.205909 0.272176 0
0.449664 0.407415 0
0.66041 0.423241 0
0.562201 0.303789 0
0.802658 0.320211 0
0.614551 0.182931 0
0.390944 0.331035 0
0.687136 0.18846 0
0.070577 0.342498 0
0.741087 0.437361 0
0.176989 0.547528 0
0.710251 0.07409 0
0.192845 0.608574 0
0.171114 0.398277 0
0.058959 0.753084 0
0.904 0.425508 0
0.438039 0.730373 0
0.057223 0.475897 0
0.058502 0.552106 0
0.330493 0.750997 0
0.312295 0.699131 0
0.684882 0.307111 0
0.053312 0.627311 0
0.198798 0.743695 0
0.392326 0.069953 0
0.351519 0.860283 0
0.397134 0.477694 0
0.319385 0.371198 0
0.767351 0.069505 0
0.441954 0.271171 0
0.759504 0.192785 0
0.855661 0.457701 0
0.500847 0.264652 0
0.916209 0.0323575 0
0.966209 0.0323575 0
0.95 0 0
0.578137 0.450449 0
0.528137 0.450449 0
0.55 0.5 0
0.03282 0.08236 0
0.03282 0.03236 0
0 0.05 0
0.502969 0.404157 0
0.474832 0.453708 0
0.468811 0.91983 0
0.468811 0.96983 0
0.5 0.95 0
0.072195 0.977072 0
0.022195 0.977072 0
0.05 1 0
0.022195 0.927072 0
0 0.95 0
0.060961 0.935348 0
0.038766 0.908276 0
0.106441 0.071888 0
0.123621 0.039528 0
0.08282 0.03236 0
0.0414895 0.815967 0
0.0414895 0.865968 0
0 0.85 0
0.173621 0.039528 0
0.15 0 0
0.05 0 0
0.301327 0.07569 0
0.321735 0.029601 0
0.279592 0.046089 0
0.070969 0.792509 0
0.0294795 0.776542 0
0.0294795 0.726542 0
0 0.75 0
0.114267 0.111981 0
0.073466 0.104813 0
0.229592 0.046089 0
0.25 0 0
0.371735 0.029601 0
0.35 0 0
0.479917 0.0432975 0
0.429918 0.0432975 0
0.45 0 0
0.461562 0.140479 0
0.413416 0.110397 0
0.415144 0.16428 0
0.574999 0.0327095 0
0.525 0.0327095 0
0.55 0 0
0.596313 0.081642 0
0.621314 0.0489325 0
0.927507 0.440964 0
0.902 0.462754 0
0.925507 0.47821 0
0.0700385 0.655732 0
0.026656 0.663655 0
0.0433825 0.692076 0
0.026656 0.613655 0
0 0.65 0
0.276766 0.370862 0
0.309781 0.333881 0
0.267162 0.333545 0
0.458929 0.582593 0
0.458929 0.532593 0
0.5 0.55 0
0.422969 0.609913 0
0.46404 0.627321 0
0.43306 0.692508 0
0.46902 0.715186 0
0.46404 0.677321 0
0.46902 0.765186 0
0.5 0.75 0
0.180082 0.948329 0
0.130082 0.948329 0
0.15 1 0
0.87983 0.441605 0
0.87783 0.478851 0
0.975507 0.42821 0
0.975507 0.47821 0
1 0.45 0
0.676439 0.0859775 0
0.705125 0.037045 0
0.671314 0.0489325 0
0.779756 0.421089 0
0.770544 0.46868 0
0.809213 0.452408 0
0.738801 0.0717975 0
0.733675 0.0347525 0
0.95 0.5 0
0.720544 0.46868 0
0.75 0.5 0
0.029251 0.526053 0
0.029251 0.576053 0
0 0.55 0
0.089006 0.530824 0
0.0899355 0.576273 0
0.12044 0.554991 0
0.461886 0.884856 0
0.461886 0.834856 0
0.5 0.85 0
0.089571 0.380533 0
0.0352885 0.371249 0
0.0542825 0.409284 0
0.918515 0.197991 0
0.964263 0.222229 0
0.954252 0.175762 0
0.630205 0.46162 0
0.680205 0.46162 0
0.65 0.5 0
0.0352885 0.321249 0
0 0.35 0
0.0487265 0.226631 0
0.0487265 0.276631 0
0 0.25 0
0.286541 0.951056 0
0.236541 0.951056 0
0.25 1 0
0.382169 0.964303 0
0.332168 0.964303 0
0.35 1 0
0.966209 0.0823575 0
1 0.05 0
0.876558 0.0357485 0
0.826558 0.0357485 0
0.85 0 0
0.710547 0.227526 0
0.663415 0.224132 0
0.686826 0.263198 0
0.964263 0.272229 0
1 0.25 0
0.40098 0.934133 0
0.418811 0.96983 0
0.45 1 0
0.326813 0.219104 0
0.290186 0.248584 0
0.336805 0.267084 0
0.243052 0.23639 0
0.253043 0.28437 0
0.224721 0.582616 0
0.220205 0.636726 0
0.252082 0.610769 0
0.92046 0.10812 0
0.954252 0.125762 0
0.66166 0.32475 0
0.662288 0.283458 0
0.639066 0.301096 0
0.949255 0.366653 0
0.949255 0.316653 0
1 0.35 0
0.291542 0.723459 0
0.27993 0.682005 0
0.259178 0.706333 0
0.394055 0.89916 0
0.430698 0.904686 0
0.531524 0.28422 0
0.492115 0.297124 0
0.522791 0.316692 0
0.040646 0.122453 0
0.040646 0.172453 0
0 0.15 0
1 0.15 0
0.151681 0.262718 0
0.192069 0.222774 0
0.137841 0.213317 0
0.558428 0.264284 0
0.600947 0.281797 0
0.597175 0.242291 0
0.508973 0.20957 0
0.551071 0.183459 0
0.505387 0.168251 0
0.118847 0.906605 0
0.088766 0.958276 0
0.3123 0.881198 0
0.329373 0.835836 0
0.290155 0.856751 0
0.18042 0.709353 0
0.223182 0.704287 0
0.204805 0.669945 0
0.114037 0.464054 0
0.157422 0.486991 0
0.15195 0.441504 0
0.279361 0.505346 0
0.248729 0.459236 0
0.225966 0.51055 0
0.423399 0.442555 0
0.448567 0.488847 0
0.892767 0.068106 0
0.65 0 0
0.901255 0.379406 0
0.952 0.412754 0
0.858877 0.146767 0
0.822019 0.189153 0
0.871644 0.19391 0
0.14825 0.528535 0
0.186162 0.505985 0
0.178931 0.775801 0
0.161815 0.746482 0
0.141948 0.778588 0
0.29813 0.591225 0
0.34111 0.580516 0
0.299577 0.545951 0
0.913519 0.288882 0
0.881657 0.240376 0
0.866648 0.2848 0
0.664882 0.143162 0
0.708469 0.158169 0
0.686215 0.112871 0
0.768308 0.293401 0
0.818722 0.278253 0
0.784372 0.251443 0
0.407693 0.254387 0
0.452622 0.232766 0
0.418361 0.215983 0
0.559238 0.352343 0
0.519829 0.365247 0
0.269689 0.146391 0
0.323596 0.167402 0
0.313091 0.113188 0
0.367897 0.0645775 0
0.396163 0.0349765 0
0.220028 0.321352 0
0.17678 0.307097 0
0.190899 0.356272 0
0.584604 0.203855 0
0.581018 0.162535 0
0.250656 0.860137 0
0.267729 0.814776 0
0.359821 0.770477 0
0.31886 0.781193 0
0.348189 0.800674 0
0.124404 0.679582 0
0.141706 0.637726 0
0.104067 0.642297 0
0.216622 0.899385 0
0.203213 0.085617 0
0.162735 0.126214 0
0.218707 0.132775 0
0.0893725 0.199083 0
0.129761 0.159139 0
0.121022 0.819921 0
0.103905 0.790602 0
0.193647 0.813034 0
0.159614 0.852282 0
0.194196 0.85741 0
0.650843 0.185696 0
0.628589 0.140398 0
0.504917 0.076007 0
0.50366 0.114367 0
0.548742 0.103779 0
0.378761 0.595487 0
0.380208 0.550214 0
0.466523 0.368506 0
0.783675 0.0347525 0
0.75 0 0
0.595056 0.120002 0
0.20263 0.384402 0
0.183224 0.431359 0
0.214741 0.417484 0
0.084015 0.29788 0
0.109114 0.342258 0
0.122552 0.29764 0
0.370334 0.82512 0
0.387646 0.864998 0
0.406461 0.829835 0
0.355164 0.351116 0
0.345461 0.389393 0
0.38124 0.369312 0
0.177444 0.641792 0
0.157107 0.604507 0
0.0286115 0.437949 0
0.0286115 0.487949 0
0 0.45 0
0.184917 0.578051 0
0.216794 0.552094 0
0.310754 0.412615 0
0.268135 0.41228 0
0.13984 0.408422 0
0.159382 0.370147 0
0.128108 0.380293 0
0.784378 0.167398 0
0.797145 0.21454 0
0.649424 0.382815 0
0.693196 0.390508 0
0.682209 0.350082 0
0.471401 0.267911 0
0.482069 0.229507 0
0.600319 0.323089 0
0.597356 0.371644 0
0.370215 0.185901 0
0.420304 0.369225 0
0.410601 0.407502 0
0.5 0.65 0
0.293615 0.645334 0
0.325979 0.66246 0
0.342624 0.703635 0
0.356309 0.666965 0
0.24951 0.782974 0
0.289009 0.779588 0
0.810542 0.362514 0
0.76432 0.338993 0
0.772204 0.381296 0
0.70942 0.286852 0
0.705431 0.332443 0
0.729969 0.312184 0
0.831184 0.106754 0
0.88081 0.111511 0
0.700748 0.430301 0
0.733534 0.397568 0
0.850584 0.326758 0
0.229212 0.186988 0
0.407496 0.52144 0
0.369845 0.506468 0
0.413594 0.760165 0
0.405497 0.719256 0
0.381051 0.749049 0
0.444574 0.794979 0
0.383872 0.640216 0
0.400517 0.681391 0
0.355233 0.0967005 0
0.42608 0.078274 0
0.379662 0.102076 0
0.055907 0.589708 0
0.0873405 0.613876 0
0.072862 0.718619 0
0.0918955 0.751177 0
0.105798 0.716711 0
0.234794 0.74574 0
0.213514 0.780928 0
0.143437 0.712141 0
0.72332 0.190623 0
0.744653 0.160332 0
0.788301 0.105758 0
0.748577 0.0986915 0
0.769527 0.134944 0
0.357928 0.894445 0
0.318709 0.915359 0
0.0802555 0.874244 0
0.121571 0.864297 0
0.32234 0.494638 0
0.349629 0.465863 0
0.384335 0.442641 0
0.336831 0.43081 0
0.608343 0.412069 0
0.527752 0.244716 0
0.858468 0.369061 0
0.627123 0.221367 0
0.382188 0.284319 0
0.345561 0.3138 0
0.437163 0.330315 0
0.746731 0.229689 0
0.149179 0.573985 0
0.720027 0.100984 0
0.810234 0.070501 0
0.861213 0.415162 0
0.827831 0.478851 0
0.85 0.5 0
0.082894 0.447232 0
0.0883665 0.492719 0
0.0578625 0.514002 0
0.300642 0.749391 0
0.351723 0.729569 0
0.321394 0.725064 0
0.416449 0.301103 0
0.462668 0.300384 0
0.837044 0.431259 0
</DataArray>
</Points>
<Cells>
<DataArray  type="UInt32"  Name="connectivity"  format="ascii">
1 138 139 
14 137 139 
45 137 138 
137 138 139 
4 141 142 
27 140 142 
65 140 141 
140 141 142 
0 144 145 
23 143 145 
43 143 144 
143 144 145 
4 141 147 
65 141 146 
105 146 147 
141 146 147 
5 149 150 
31 148 150 
47 148 149 
148 149 150 
2 152 153 
32 151 153 
44 151 152 
151 152 153 
2 152 155 
15 154 155 
44 152 154 
152 154 155 
15 154 157 
44 154 156 
101 156 157 
154 156 157 
6 159 160 
43 158 160 
93 158 159 
158 159 160 
15 162 163 
16 161 163 
71 161 162 
161 162 163 
6 159 165 
7 164 165 
93 159 164 
159 164 165 
[...]
<PointData  Vectors="u"> 
<DataArray  type="Float32"  Name="u"  NumberOfComponents="3" format="ascii">
 0.000000e+00 0.000000e+00 0.000000e+00
 1.062036e-01 -3.335870e-02 0.000000e+00
 3.426980e-02 -1.124401e-01 0.000000e+00
 8.890185e-02 2.905354e-02 0.000000e+00
 0.000000e+00 0.000000e+00 0.000000e+00
 -3.977833e-02 -1.326786e-01 0.000000e+00
 0.000000e+00 0.000000e+00 0.000000e+00
 0.000000e+00 0.000000e+00 0.000000e+00
 0.000000e+00 0.000000e+00 0.000000e+00
 0.000000e+00 0.000000e+00 0.000000e+00
 0.000000e+00 0.000000e+00 0.000000e+00
 0.000000e+00 0.000000e+00 0.000000e+00
 0.000000e+00 0.000000e+00 0.000000e+00
 0.000000e+00 0.000000e+00 0.000000e+00
 0.000000e+00 0.000000e+00 0.000000e+00
 0.000000e+00 0.000000e+00 0.000000e+00
 0.000000e+00 0.000000e+00 0.000000e+00
 0.000000e+00 0.000000e+00 0.000000e+00
 0.000000e+00 0.000000e+00 0.000000e+00
 0.000000e+00 0.000000e+00 0.000000e+00
 0.000000e+00 0.000000e+00 0.000000e+00
 0.000000e+00 0.000000e+00 0.000000e+00
 0.000000e+00 0.000000e+00 0.000000e+00
 0.000000e+00 0.000000e+00 0.000000e+00
 0.000000e+00 0.000000e+00 0.000000e+00
 0.000000e+00 0.000000e+00 0.000000e+00
 0.000000e+00 0.000000e+00 0.000000e+00
 0.000000e+00 0.000000e+00 0.000000e+00
 0.000000e+00 0.000000e+00 0.000000e+00
 0.000000e+00 0.000000e+00 0.000000e+00
 0.000000e+00 0.000000e+00 0.000000e+00
 0.000000e+00 0.000000e+00 0.000000e+00
 3.138652e-02 -2.987563e-01 0.000000e+00
 1.077588e-02 -4.252911e-01 0.000000e+00
 -6.115150e-03 -4.346583e-01 0.000000e+00
 -3.071146e-02 -3.184235e-01 0.000000e+00
 3.255645e-01 -2.349846e-02 0.000000e+00
 4.413256e-01 -2.765860e-05 0.000000e+00
 4.289274e-01 1.589756e-02 0.000000e+00
 2.994370e-01 3.076750e-02 0.000000e+00
 2.085106e-01 -2.530021e-01 0.000000e+00
 4.017861e-02 -4.588721e-01 0.000000e+00
 4.826299e-01 -3.107853e-02 0.000000e+00
 3.523641e-03 -3.945345e-03 0.000000e+00
 3.808332e-02 -1.769667e-01 0.000000e+00
 2.510118e-01 -1.884565e-02 0.000000e+00
 1.598737e-01 2.929478e-02 0.000000e+00
 -3.575116e-02 -2.468211e-01 0.000000e+00
 8.113348e-02 -3.487262e-01 0.000000e+00
 4.162897e-01 -2.204400e-01 0.000000e+00
 4.710113e-01 1.736592e-02 0.000000e+00
 8.742863e-03 -4.565196e-01 0.000000e+00
 8.040239e-02 -9.616896e-02 0.000000e+00
 2.427246e-01 -7.641599e-02 0.000000e+00
 3.877167e-01 -3.994976e-02 0.000000e+00
 1.240955e-02 -3.490143e-01 0.000000e+00
 1.596119e-02 -4.039355e-01 0.000000e+00
 1.143721e-01 -4.585610e-01 0.000000e+00
 6.066237e-02 -2.110769e-01 0.000000e+00
 4.074527e-01 4.746894e-03 0.000000e+00
 3.724564e-01 1.924517e-02 0.000000e+00
 2.358874e-02 -3.111132e-01 0.000000e+00
 2.252204e-02 -4.067210e-01 0.000000e+00
 4.230852e-01 -2.197171e-04 0.000000e+00
 4.099409e-01 2.349578e-02 0.000000e+00
 3.251272e-01 -9.248149e-02 0.000000e+00
 1.169975e-01 -4.242609e-02 0.000000e+00
 3.682846e-01 -1.100758e-01 0.000000e+00
 -1.054050e-02 -2.830677e-01 0.000000e+00
 1.302036e-02 -4.564867e-01 0.000000e+00
 1.605048e-02 -3.237566e-02 0.000000e+00
 9.207005e-03 -2.670974e-01 0.000000e+00
 2.455271e-01 -8.371233e-03 0.000000e+00
 2.536112e-01 -3.869001e-01 0.000000e+00
 3.460579e-01 -3.971321e-03 0.000000e+00
 2.565469e-01 -2.757157e-02 0.000000e+00
 3.259494e-02 -2.074619e-01 0.000000e+00
 2.018681e-03 -4.551366e-01 0.000000e+00
 8.038696e-02 -4.413854e-01 0.000000e+00
 3.214846e-02 -2.728605e-01 0.000000e+00
 1.312279e-01 -3.050463e-01 0.000000e+00
 2.735745e-02 -9.821614e-02 0.000000e+00
 4.165980e-01 -2.222379e-02 0.000000e+00
 4.516196e-01 -8.137476e-02 0.000000e+00
 2.894656e-01 -1.835172e-01 0.000000e+00
 5.566493e-02 -4.552805e-01 0.000000e+00
 2.185722e-02 -4.668227e-01 0.000000e+00
 4.751109e-01 1.115377e-02 0.000000e+00
 4.578335e-01 1.248710e-02 0.000000e+00
 2.726572e-01 2.549701e-04 0.000000e+00
 2.770497e-01 1.808144e-02 0.000000e+00
 1.807841e-01 -1.456612e-01 0.000000e+00
 6.420227e-02 -3.760555e-01 0.000000e+00
 3.468982e-02 -2.245290e-02 0.000000e+00
 5.274589e-03 -3.674050e-01 0.000000e+00
 1.916287e-02 -2.968607e-01 0.000000e+00
 1.353983e-01 -1.941738e-02 0.000000e+00
 9.136128e-03 -2.558021e-01 0.000000e+00
 2.467538e-02 -3.937907e-01 0.000000e+00
 4.235207e-01 7.919621e-03 0.000000e+00
 -1.698161e-02 -3.912923e-01 0.000000e+00
 2.545335e-02 -2.616393e-01 0.000000e+00
 1.403425e-02 -4.052023e-01 0.000000e+00
 1.586605e-01 -4.123300e-01 0.000000e+00
 1.111226e-01 -1.966536e-01 0.000000e+00
 3.306869e-01 -3.323824e-01 0.000000e+00
 2.010860e-01 8.188463e-03 0.000000e+00
 4.629783e-01 -1.070088e-01 0.000000e+00
 4.269157e-01 2.480838e-02 0.000000e+00
 4.527238e-01 -3.072691e-02 0.000000e+00
 3.138548e-01 -2.923788e-01 0.000000e+00
 4.684986e-01 -4.751203e-03 0.000000e+00
 1.485244e-02 -1.062934e-01 0.000000e+00
 1.689868e-01 1.186848e-02 0.000000e+00
 5.239409e-02 -3.736295e-01 0.000000e+00
 2.878222e-01 2.677561e-03 0.000000e+00
 4.407140e-02 -4.117751e-01 0.000000e+00
 7.479009e-02 -2.780252e-01 0.000000e+00
 3.627671e-03 -1.883431e-01 0.000000e+00
 2.409849e-01 1.857624e-02 0.000000e+00
 6.784049e-03 -2.439218e-01 0.000000e+00
 9.086531e-03 -1.282894e-01 0.000000e+00
 7.925826e-03 -1.526834e-01 0.000000e+00
 1.815001e-02 -4.481454e-01 0.000000e+00
 3.203010e-02 -4.617797e-01 0.000000e+00
 4.536427e-01 -8.422883e-04 0.000000e+00
 5.017559e-03 -1.541925e-01 0.000000e+00
 2.053186e-02 -4.393191e-01 0.000000e+00
 1.846320e-01 -2.385642e-02 0.000000e+00
 -4.150175e-03 -4.182369e-01 0.000000e+00
 1.903407e-01 -4.345633e-01 0.000000e+00
 2.165051e-01 -3.409193e-01 0.000000e+00
 2.711337e-01 3.568564e-03 0.000000e+00
 3.742028e-01 -1.975933e-01 0.000000e+00
 4.701462e-01 9.775321e-03 0.000000e+00
 1.336207e-01 5.974559e-03 0.000000e+00
 4.295787e-01 -1.492980e-01 0.000000e+00
 1.402782e-01 -1.091707e-02 0.000000e+00
 1.494985e-01 -3.119238e-02 0.000000e+00
 0.000000e+00 0.000000e+00 0.000000e+00
 1.337756e-01 -1.677573e-02 0.000000e+00
 2.027879e-01 -1.073076e-01 0.000000e+00
 0.000000e+00 0.000000e+00 0.000000e+00
 9.975697e-04 -9.923323e-04 0.000000e+00
 -9.217686e-04 9.205784e-04 0.000000e+00
 0.000000e+00 0.000000e+00 0.000000e+00
 3.519878e-01 -2.153917e-01 0.000000e+00
 2.489403e-01 -2.879770e-01 0.000000e+00
 -2.183291e-02 -1.445882e-01 0.000000e+00
 -4.017959e-02 -1.621030e-01 0.000000e+00
 0.000000e+00 0.000000e+00 0.000000e+00
 3.815615e-02 -2.409135e-01 0.000000e+00
 3.691338e-02 -1.318645e-01 0.000000e+00
 4.064925e-02 -1.862251e-01 0.000000e+00
 1.895117e-02 -9.701105e-02 0.000000e+00
 0.000000e+00 0.000000e+00 0.000000e+00
 3.163528e-02 -2.202726e-01 0.000000e+00
 1.601672e-02 -1.502997e-01 0.000000e+00
 1.495916e-02 -1.256874e-02 0.000000e+00
 1.013843e-02 -5.185167e-03 0.000000e+00
 1.414690e-03 -1.468940e-03 0.000000e+00
 2.630183e-03 -1.396536e-01 0.000000e+00
 5.735670e-03 -1.476702e-01 0.000000e+00
 0.000000e+00 0.000000e+00 0.000000e+00
 2.519346e-02 -7.733026e-03 0.000000e+00
 0.000000e+00 0.000000e+00 0.000000e+00
 0.000000e+00 0.000000e+00 0.000000e+00
 1.323550e-01 -3.082561e-02 0.000000e+00
 6.743783e-02 -5.940848e-03 0.000000e+00
 7.878721e-02 -1.312066e-02 0.000000e+00
 5.448095e-03 -2.287471e-01 0.000000e+00
 1.070498e-03 -9.530984e-02 0.000000e+00
 1.110921e-03 -9.209747e-02 0.000000e+00
 0.000000e+00 0.000000e+00 0.000000e+00
 2.721937e-02 -3.132314e-02 0.000000e+00
 9.962990e-03 -1.499359e-02 0.000000e+00
 5.421930e-02 -1.237120e-02 0.000000e+00
 0.000000e+00 0.000000e+00 0.000000e+00
 8.416783e-02 -5.526648e-03 0.000000e+00
 0.000000e+00 0.000000e+00 0.000000e+00
 1.591105e-01 -6.963032e-03 0.000000e+00
 1.420216e-01 -9.063324e-03 0.000000e+00
 0.000000e+00 0.000000e+00 0.000000e+00
 3.296960e-01 -6.461348e-02 0.000000e+00
 2.604991e-01 -5.003767e-02 0.000000e+00
 3.071004e-01 -9.686050e-02 0.000000e+00
 1.400485e-01 -1.225880e-03 0.000000e+00
 1.336097e-01 -2.720709e-03 0.000000e+00
 0.000000e+00 0.000000e+00 0.000000e+00
 3.000332e-01 -7.286714e-03 0.000000e+00
 2.042586e-01 -9.924657e-04 0.000000e+00
 2.020712e-01 2.220071e-02 0.000000e+00
 1.292225e-01 9.443470e-03 0.000000e+00
 8.222579e-02 1.267496e-02 0.000000e+00
 7.188352e-03 -2.066180e-01 0.000000e+00
 1.242014e-03 -7.836100e-02 0.000000e+00
 2.573904e-03 -1.332123e-01 0.000000e+00
 1.586267e-03 -7.389368e-02 0.000000e+00
 0.000000e+00 0.000000e+00 0.000000e+00
 1.722966e-01 -3.264015e-01 0.000000e+00
 2.156948e-01 -2.968834e-01 0.000000e+00
 1.690457e-01 -2.846406e-01 0.000000e+00
 2.125868e-02 -2.225489e-01 0.000000e+00
 6.521386e-02 -2.749727e-01 0.000000e+00
 0.000000e+00 0.000000e+00 0.000000e+00
 3.459618e-02 -3.334964e-01 0.000000e+00
 9.016901e-03 -1.729500e-01 0.000000e+00
 1.156764e-02 -2.686395e-01 0.000000e+00
 2.742143e-03 -1.298496e-01 0.000000e+00
 5.062951e-03 -1.576140e-01 0.000000e+00
 1.478413e-03 -1.245659e-01 0.000000e+00
 0.000000e+00 0.000000e+00 0.000000e+00
 1.416019e-02 -4.133161e-01 0.000000e+00
 2.314421e-02 -3.555640e-01 0.000000e+00
 2.007100e-02 -3.789921e-01 0.000000e+00
 1.900411e-01 1.119807e-02 0.000000e+00
 6.800842e-02 2.372961e-03 0.000000e+00
 2.360445e-01 3.407184e-02 0.000000e+00
 1.099906e-01 3.114609e-02 0.000000e+00
 1.763079e-01 3.710687e-02 0.000000e+00
 3.204192e-01 4.194036e-04 0.000000e+00
 1.591741e-01 1.526288e-03 0.000000e+00
 2.058800e-01 9.651578e-04 0.000000e+00
 2.254596e-01 1.524223e-02 0.000000e+00
 8.174157e-02 4.364565e-03 0.000000e+00
 1.397711e-01 7.207541e-03 0.000000e+00
 2.799255e-01 3.498442e-03 0.000000e+00
 1.488590e-01 1.420272e-03 0.000000e+00
 0.000000e+00 0.000000e+00 0.000000e+00
 7.162141e-02 4.791156e-03 0.000000e+00
 0.000000e+00 0.000000e+00 0.000000e+00
 2.467422e-03 -7.020521e-02 0.000000e+00
 2.119011e-03 -7.713836e-02 0.000000e+00
 0.000000e+00 0.000000e+00 0.000000e+00
 1.811721e-02 -2.204290e-01 0.000000e+00
 1.578249e-02 -2.377159e-01 0.000000e+00
 2.801513e-02 -2.936459e-01 0.000000e+00
 -8.226192e-03 -1.600553e-01 0.000000e+00
 -1.075542e-03 -1.517300e-01 0.000000e+00
 0.000000e+00 0.000000e+00 0.000000e+00
 2.344743e-02 -1.554282e-01 0.000000e+00
 3.918156e-03 -5.485341e-02 0.000000e+00
 8.883640e-03 -1.010971e-01 0.000000e+00
 4.535666e-01 6.188172e-03 0.000000e+00
 4.516904e-01 5.789818e-03 0.000000e+00
 4.352549e-01 -1.852057e-03 0.000000e+00
 7.792232e-02 4.354634e-03 0.000000e+00
 8.316806e-02 6.107028e-03 0.000000e+00
 0.000000e+00 0.000000e+00 0.000000e+00
 3.794531e-03 -4.421862e-02 0.000000e+00
 0.000000e+00 0.000000e+00 0.000000e+00
 6.792242e-03 -3.750512e-02 0.000000e+00
 7.061901e-03 -5.182285e-02 0.000000e+00
 0.000000e+00 0.000000e+00 0.000000e+00
 -2.968287e-03 -4.429722e-01 0.000000e+00
 5.237031e-03 -4.433017e-01 0.000000e+00
 2.592768e-03 -4.434494e-01 0.000000e+00
 -2.455189e-02 -3.548052e-01 0.000000e+00
 -1.230386e-02 -4.158843e-01 0.000000e+00
 -1.706757e-02 -3.954543e-01 0.000000e+00
 2.916952e-01 -2.561757e-02 0.000000e+00
 1.971829e-01 -3.511793e-02 0.000000e+00
 1.488325e-01 -1.655842e-03 0.000000e+00
 1.481427e-01 8.597514e-04 0.000000e+00
 0.000000e+00 0.000000e+00 0.000000e+00
 4.825664e-01 1.875781e-03 0.000000e+00
 4.812689e-01 -1.608152e-02 0.000000e+00
 4.810500e-01 -5.234346e-03 0.000000e+00
 4.460208e-01 1.365039e-02 0.000000e+00
 4.474486e-01 8.492799e-03 0.000000e+00
 -2.639653e-02 -3.309540e-01 0.000000e+00
 -3.610831e-02 -2.830618e-01 0.000000e+00
 -4.151378e-02 -2.050257e-01 0.000000e+00
 2.338749e-01 -1.672085e-01 0.000000e+00
 1.968480e-01 -1.979505e-01 0.000000e+00
 2.506660e-01 -2.214652e-01 0.000000e+00
 1.463184e-01 -1.758867e-01 0.000000e+00
 1.578490e-01 -2.281466e-01 0.000000e+00
 6.045858e-02 -4.302466e-01 0.000000e+00
 4.357076e-02 -4.403625e-01 0.000000e+00
 5.779097e-02 -4.530261e-01 0.000000e+00
 3.575828e-01 -9.493118e-03 0.000000e+00
 3.809560e-01 -1.217626e-02 0.000000e+00
 4.375910e-01 -1.056126e-02 0.000000e+00
 4.742384e-01 -1.637406e-02 0.000000e+00
 4.659240e-01 -2.975082e-02 0.000000e+00
 3.636540e-01 2.504227e-02 0.000000e+00
 4.219388e-01 2.031071e-02 0.000000e+00
 3.825207e-01 2.298212e-02 0.000000e+00
 2.668525e-02 -4.661387e-01 0.000000e+00
 3.742914e-02 -4.670377e-01 0.000000e+00
 3.044989e-02 -4.650761e-01 0.000000e+00
 -1.748172e-02 -3.504507e-01 0.000000e+00
 -2.089904e-02 -2.660582e-01 0.000000e+00
 4.541104e-01 -1.340281e-01 0.000000e+00
 4.272560e-01 -1.840547e-01 0.000000e+00
 4.451568e-01 -1.608593e-01 0.000000e+00
 3.441514e-03 -7.862975e-03 0.000000e+00
 4.316315e-03 -1.765415e-02 0.000000e+00
 0.000000e+00 0.000000e+00 0.000000e+00
 4.048695e-01 -1.053901e-02 0.000000e+00
 6.414695e-02 -1.538311e-01 0.000000e+00
 9.676371e-02 -1.445029e-01 0.000000e+00
 5.223086e-02 -1.065957e-01 0.000000e+00
 4.649535e-01 -9.784284e-02 0.000000e+00
 4.759413e-01 -6.285865e-02 0.000000e+00
 4.748358e-01 -5.808839e-02 0.000000e+00
 4.144624e-01 -1.004149e-01 0.000000e+00
 4.265500e-01 -6.068639e-02 0.000000e+00
 3.859966e-01 -7.155503e-02 0.000000e+00
 2.087853e-02 -3.462252e-01 0.000000e+00
 3.237019e-02 -2.804051e-01 0.000000e+00
 -1.650202e-03 -4.460589e-01 0.000000e+00
 2.562822e-03 -4.413145e-01 0.000000e+00
 4.073413e-03 -4.575368e-01 0.000000e+00
 2.308851e-02 -4.200237e-01 0.000000e+00
 2.862971e-02 -4.515858e-01 0.000000e+00
 3.312660e-02 -4.354375e-01 0.000000e+00
 3.322984e-02 -2.410060e-01 0.000000e+00
 5.395637e-02 -3.197831e-01 0.000000e+00
 5.686474e-02 -2.855989e-01 0.000000e+00
 1.145806e-01 -4.323991e-01 0.000000e+00
 1.182361e-01 -3.872206e-01 0.000000e+00
 8.579375e-02 -4.019275e-01 0.000000e+00
 2.596000e-01 -3.962929e-01 0.000000e+00
 1.685175e-01 -3.590817e-01 0.000000e+00
 2.617329e-01 -5.770295e-03 0.000000e+00
 0.000000e+00 0.000000e+00 0.000000e+00
 3.433911e-01 2.317234e-02 0.000000e+00
 2.754253e-01 2.860812e-02 0.000000e+00
 4.245699e-01 5.476201e-03 0.000000e+00
 4.629401e-01 1.201311e-02 0.000000e+00
 4.590378e-01 1.013362e-02 0.000000e+00
 4.312009e-02 -3.280923e-01 0.000000e+00
 6.612351e-02 -3.639219e-01 0.000000e+00
 1.620535e-02 -4.247187e-01 0.000000e+00
 1.698702e-02 -4.040557e-01 0.000000e+00
 1.342672e-02 -3.805506e-01 0.000000e+00
 7.291748e-02 -4.632980e-01 0.000000e+00
 8.052009e-02 -4.591349e-01 0.000000e+00
 9.865633e-02 -4.556537e-01 0.000000e+00
 4.452464e-01 1.942553e-02 0.000000e+00
 4.648106e-01 1.563875e-02 0.000000e+00
 4.521798e-01 2.167575e-02 0.000000e+00
 4.254008e-01 -5.950490e-03 0.000000e+00
 4.458710e-01 1.548142e-03 0.000000e+00
 3.804605e-01 5.184647e-04 0.000000e+00
 4.551126e-01 2.038328e-02 0.000000e+00
 4.601102e-01 2.209135e-02 0.000000e+00
 4.743777e-01 1.770124e-02 0.000000e+00
 3.322272e-01 -1.936992e-01 0.000000e+00
 3.748987e-01 -1.512100e-01 0.000000e+00
 3.332471e-01 -1.483453e-01 0.000000e+00
 4.232140e-01 -1.134219e-01 0.000000e+00
 4.101193e-01 -1.808029e-01 0.000000e+00
 1.566730e-01 -9.045937e-02 0.000000e+00
 2.173330e-01 -1.123792e-01 0.000000e+00
 1.784261e-01 -6.061116e-02 0.000000e+00
 1.597755e-01 -2.182281e-02 0.000000e+00
 1.069218e-01 -6.669622e-03 0.000000e+00
 1.234179e-01 -2.507737e-01 0.000000e+00
 8.474690e-02 -2.096310e-01 0.000000e+00
 9.444768e-02 -2.627725e-01 0.000000e+00
 4.552622e-01 -5.296191e-02 0.000000e+00
 4.240881e-01 -3.747688e-02 0.000000e+00
 7.833158e-03 -4.590752e-01 0.000000e+00
 1.128272e-02 -4.641852e-01 0.000000e+00
 1.155177e-02 -4.170849e-01 0.000000e+00
 1.309006e-02 -4.532070e-01 0.000000e+00
 6.932925e-03 -4.279486e-01 0.000000e+00
 1.667715e-02 -3.367544e-01 0.000000e+00
 2.498825e-02 -3.566590e-01 0.000000e+00
 1.519095e-02 -2.876246e-01 0.000000e+00
 9.432982e-03 -4.455836e-01 0.000000e+00
 7.143444e-02 -3.368935e-02 0.000000e+00
 5.973828e-02 -5.487131e-02 0.000000e+00
 1.055966e-01 -7.223160e-02 0.000000e+00
 2.204248e-02 -6.235290e-02 0.000000e+00
 4.292356e-02 -6.471353e-02 0.000000e+00
 1.229643e-02 -3.495331e-01 0.000000e+00
 9.538248e-03 -3.121576e-01 0.000000e+00
 1.425424e-02 -4.378002e-01 0.000000e+00
 1.442488e-02 -4.057265e-01 0.000000e+00
 1.267575e-02 -4.364889e-01 0.000000e+00
 4.628580e-01 -1.661546e-02 0.000000e+00
 4.155575e-01 -1.419304e-02 0.000000e+00
 2.571986e-01 -1.682519e-02 0.000000e+00
 3.279944e-01 -3.626184e-02 0.000000e+00
 3.330712e-01 -2.176196e-02 0.000000e+00
 6.288559e-02 -4.283318e-01 0.000000e+00
 9.759795e-02 -4.412526e-01 0.000000e+00
 3.824849e-01 -2.761217e-01 0.000000e+00
 1.461809e-01 1.396571e-03 0.000000e+00
 0.000000e+00 0.000000e+00 0.000000e+00
 3.774852e-01 -1.738684e-02 0.000000e+00
 1.012530e-01 -2.957551e-01 0.000000e+00
 7.903628e-02 -3.145433e-01 0.000000e+00
 1.057295e-01 -3.318466e-01 0.000000e+00
 2.076395e-02 -1.056966e-01 0.000000e+00
 3.459463e-02 -1.641485e-01 0.000000e+00
 4.330304e-02 -1.521183e-01 0.000000e+00
 4.539821e-04 -3.975964e-01 0.000000e+00
 -8.915530e-03 -3.656296e-01 0.000000e+00
 -2.413122e-03 -3.272768e-01 0.000000e+00
 2.643277e-01 -3.224424e-01 0.000000e+00
 2.373679e-01 -3.659658e-01 0.000000e+00
 2.893776e-01 -3.418896e-01 0.000000e+00
 3.325996e-02 -4.046958e-01 0.000000e+00
 3.427288e-02 -3.697402e-01 0.000000e+00
 2.641506e-03 -5.428884e-02 0.000000e+00
 2.533776e-03 -6.272296e-02 0.000000e+00
 0.000000e+00 0.000000e+00 0.000000e+00
 4.867600e-02 -3.942130e-01 0.000000e+00
 6.746101e-02 -4.135773e-01 0.000000e+00
 1.893166e-01 -3.808364e-01 0.000000e+00
 1.510162e-01 -3.617743e-01 0.000000e+00
 5.214672e-02 -2.481742e-01 0.000000e+00
 6.842027e-02 -2.445652e-01 0.000000e+00
 4.570867e-02 -2.141136e-01 0.000000e+00
 4.520019e-01 9.901291e-03 0.000000e+00
 4.741969e-01 1.466724e-02 0.000000e+00
 3.250923e-01 -2.629212e-03 0.000000e+00
 2.977267e-01 1.427896e-02 0.000000e+00
 3.922117e-01 5.641201e-03 0.000000e+00
 4.040898e-01 -1.752190e-01 0.000000e+00
 4.015607e-01 -1.319028e-01 0.000000e+00
 4.512256e-01 -6.307253e-02 0.000000e+00
 3.742056e-01 -5.216075e-02 0.000000e+00
 2.722506e-01 -1.271654e-01 0.000000e+00
 3.355430e-01 -3.255770e-01 0.000000e+00
 2.946087e-01 -3.751368e-01 0.000000e+00
 0.000000e+00 0.000000e+00 0.000000e+00
 4.964491e-02 -4.662686e-01 0.000000e+00
 4.234632e-02 -4.584970e-01 0.000000e+00
 2.814971e-02 -4.431503e-01 0.000000e+00
 3.677095e-02 -4.356088e-01 0.000000e+00
 1.643702e-02 -4.636349e-01 0.000000e+00
 1.535324e-02 -4.643212e-01 0.000000e+00
 3.659827e-01 2.432216e-02 0.000000e+00
 4.036443e-01 2.345500e-02 0.000000e+00
 3.247462e-01 2.247221e-02 0.000000e+00
 4.669930e-01 6.571694e-03 0.000000e+00
 4.189863e-01 1.177190e-02 0.000000e+00
 4.417214e-01 1.546335e-02 0.000000e+00
 3.632500e-01 4.065637e-03 0.000000e+00
 3.689345e-01 -1.154415e-03 0.000000e+00
 1.820411e-01 1.246879e-02 0.000000e+00
 2.808018e-01 1.899056e-02 0.000000e+00
 4.183399e-01 2.477379e-02 0.000000e+00
 1.277865e-01 -1.237151e-01 0.000000e+00
 1.220379e-01 -4.223478e-01 0.000000e+00
 1.462563e-01 -4.508689e-01 0.000000e+00
 7.179538e-03 -3.135040e-01 0.000000e+00
 1.420894e-02 -3.405758e-01 0.000000e+00
 1.309663e-02 -3.870312e-01 0.000000e+00
 1.552278e-03 -2.147655e-01 0.000000e+00
 3.952615e-02 -4.058335e-01 0.000000e+00
 2.262721e-02 -3.611435e-01 0.000000e+00
 1.979468e-01 -4.523060e-02 0.000000e+00
 2.207865e-01 -2.643419e-02 0.000000e+00
 2.239249e-01 -4.769383e-02 0.000000e+00
 6.416297e-03 -1.543118e-01 0.000000e+00
 1.283146e-02 -2.421323e-01 0.000000e+00
 5.789192e-03 -2.245599e-01 0.000000e+00
 7.851356e-03 -2.790932e-01 0.000000e+00
 1.095061e-02 -3.061299e-01 0.000000e+00
 2.202264e-02 -4.593128e-01 0.000000e+00
 1.690482e-02 -4.502706e-01 0.000000e+00
 1.732552e-02 -3.745767e-01 0.000000e+00
 4.704543e-01 4.065793e-03 0.000000e+00
 4.478078e-01 6.679429e-03 0.000000e+00
 3.642032e-01 5.703470e-03 0.000000e+00
 3.507626e-01 4.989316e-03 0.000000e+00
 4.167433e-01 7.316847e-03 0.000000e+00
 -1.088814e-02 -4.058460e-01 0.000000e+00
 -6.211990e-03 -4.371157e-01 0.000000e+00
 1.492511e-02 -2.657434e-01 0.000000e+00
 1.580785e-02 -3.523268e-01 0.000000e+00
 1.423435e-01 -4.445254e-01 0.000000e+00
 1.823056e-01 -4.352127e-01 0.000000e+00
 2.307363e-01 -4.185909e-01 0.000000e+00
 2.025783e-01 -4.053681e-01 0.000000e+00
 2.527756e-01 -1.913282e-02 0.000000e+00
 4.434645e-01 -1.128974e-01 0.000000e+00
 3.585148e-01 2.301256e-02 0.000000e+00
 4.760392e-01 -3.413443e-02 0.000000e+00
 3.057191e-01 -2.369018e-01 0.000000e+00
 2.602078e-01 -2.770179e-01 0.000000e+00