<?xml version="1.0"?>
<VTKFile type="UnstructuredGrid"  version="0.1"  >
<UnstructuredGrid>
<Piece  NumberOfPoints="505" NumberOfCells="928">
<Points>
<DataArray  type="Float32"  NumberOfComponents="3"  format="ascii">
0 0 0
1 0 0
0 1 0
1 0.5 0
0.5 0.5 0
0.5 1 0
0.1 0 0
0.2 0 0
0.3 0 0
0.4 0 0
0.5 0 0
0.6 0 0
0.7 0 0
0.8 0 0
0.9 0 0
0 0.9 0
0 0.8 0
0 0.7 0
0 0.6 0
0 0.5 0
0 0.4 0
0 0.3 0
0 0.2 0
0 0.1 0
0.9 0.5 0
0.8 0.5 0
0.7 0.5 0
0.6 0.5 0
0.5 0.6 0
0.5 0.7 0
0.5 0.8 0
0.5 0.9 0
0.1 1 0
0.2 1 0
0.3 1 0
0.4 1 0
1 0.1 0
1 0.2 0
1 0.3 0
1 0.4 0
0.300178 0.296564 0
0.247566 0.664879 0
0.639694 0.259804 0
0.06564 0.06472 0
0.04439 0.954144 0
0.932418 0.064715 0
0.951013 0.456419 0
0.437622 0.939659 0
0.195334 0.464441 0
0.483382 0.329596 0
0.834786 0.236295 0
0.307228 0.81139 0
0.178229 0.173372 0
0.366998 0.134199 0
0.547485 0.14214 0
0.124832 0.74927 0
0.160163 0.896658 0
0.342556 0.535243 0
0.147651 0.342018 0
0.729803 0.127878 0
0.725981 0.357775 0
0.121369 0.600441 0
0.372954 0.70814 0
0.908503 0.151525 0
0.89851 0.333305 0
0.556275 0.400898 0
0.259184 0.092178 0
0.46329 0.194362 0
0.423773 0.869712 0
0.22823 0.818162 0
0.081292 0.144905 0
0.082979 0.831935 0
0.549999 0.065419 0
0.371537 0.407588 0
0.642628 0.097865 0
0.459835 0.086595 0
0.108565 0.418567 0
0.273082 0.902112 0
0.256598 0.556659 0
0.11951 0.509541 0
0.234147 0.370527 0
0.097453 0.253261 0
0.638438 0.342389 0
0.554656 0.224779 0
0.373432 0.237603 0
0.339663 0.62579 0
0.27079 0.747786 0
0.733958 0.266592 0
0.928527 0.244458 0
0.853116 0.071497 0
0.818426 0.404817 0
0.280194 0.200604 0
0.417859 0.565185 0
0.147241 0.079056 0
0.389149 0.789957 0
0.42808 0.654642 0
0.343469 0.059202 0
0.086765 0.684153 0
0.162043 0.675011 0
0.809252 0.14201 0
0.364337 0.928607 0
0.077532 0.916553 0
0.159064 0.807906 0
0.302124 0.454032 0
0.205909 0.272176 0
0.449664 0.407415 0
0.66041 0.423241 0
0.562201 0.303789 0
0.802658 0.320211 0
0.614551 0.182931 0
0.390944 0.331035 0
0.687136 0.18846 0
0.070577 0.342498 0
0.741087 0.437361 0
0.176989 0.547528 0
0.710251 0.07409 0
0.192845 0.608574 0
0.171114 0.398277 0
0.058959 0.753084 0
0.904 0.425508 0
0.438039 0.730373 0
0.057223 0.475897 0
0.058502 0.552106 0
0.330493 0.750997 0
0.312295 0.699131 0
0.684882 0.307111 0
0.053312 0.627311 0
0.198798 0.743695 0
0.392326 0.069953 0
0.351519 0.860283 0
0.397134 0.477694 0
0.319385 0.371198 0
0.767351 0.069505 0
0.441954 0.271171 0
0.759504 0.192785 0
0.855661 0.457701 0
0.500847 0.264652 0
0.916209 0.0323575 0
0.966209 0.0323575 0
0.95 0 0
0.578137 0.450449 0
0.528137 0.450449 0
0.55 0.5 0
0.03282 0.08236 0
0.03282 0.03236 0
0 0.05 0
0.502969 0.404157 0
0.474832 0.453708 0
0.468811 0.91983 0
0.468811 0.96983 0
0.5 0.95 0
0.072195 0.977072 0
0.022195 0.977072 0
0.05 1 0
0.022195 0.927072 0
0 0.95 0
0.060961 0.935348 0
0.038766 0.908276 0
0.106441 0.071888 0
0.123621 0.039528 0
0.08282 0.03236 0
0.0414895 0.815967 0
0.0414895 0.865968 0
0 0.85 0
0.173621 0.039528 0
0.15 0 0
0.05 0 0
0.301327 0.07569 0
0.321735 0.029601 0
0.279592 0.046089 0
0.070969 0.792509 0
0.0294795 0.776542 0
0.0294795 0.726542 0
0 0.75 0
0.114267 0.111981 0
0.073466 0.104813 0
0.229592 0.046089 0
0.25 0 0
0.371735 0.029601 0
0.35 0 0
0.479917 0.0432975 0
0.429918 0.0432975 0
0.45 0 0
0.461562 0.140479 0
0.413416 0.110397 0
0.415144 0.16428 0
0.574999 0.0327095 0
0.525 0.0327095 0
0.55 0 0
0.596313 0.081642 0
0.621314 0.0489325 0
0.927507 0.440964 0
0.902 0.462754 0
0.925507 0.47821 0
0.0700385 0.655732 0
0.026656 0.663655 0
0.0433825 0.692076 0
0.026656 0.613655 0
0 0.65 0
0.276766 0.370862 0
0.309781 0.333881 0
0.267162 0.333545 0
0.458929 0.582593 0
0.458929 0.532593 0
0.5 0.55 0
0.422969 0.609913 0
0.46404 0.627321 0
0.43306 0.692508 0
0.46902 0.715186 0
0.46404 0.677321 0
0.46902 0.765186 0
0.5 0.75 0
0.180082 0.948329 0
0.130082 0.948329 0
0.15 1 0
0.87983 0.441605 0
0.87783 0.478851 0
0.975507 0.42821 0
0.975507 0.47821 0
1 0.45 0
0.676439 0.0859775 0
0.705125 0.037045 0
0.671314 0.0489325 0
0.779756 0.421089 0
0.770544 0.46868 0
0.809213 0.452408 0
0.738801 0.0717975 0
0.733675 0.0347525 0
0.95 0.5 0
0.720544 0.46868 0
0.75 0.5 0
0.029251 0.526053 0
0.029251 0.576053 0
0 0.55 0
0.089006 0.530824 0
0.0899355 0.576273 0
0.12044 0.554991 0
0.461886 0.884856 0
0.461886 0.834856 0
0.5 0.85 0
0.089571 0.380533 0
0.0352885 0.371249 0
0.0542825 0.409284 0
0.918515 0.197991 0
0.964263 0.222229 0
0.954252 0.175762 0
0.630205 0.46162 0
0.680205 0.46162 0
0.65 0.5 0
0.0352885 0.321249 0
0 0.35 0
0.0487265 0.226631 0
0.0487265 0.276631 0
0 0.25 0
0.286541 0.951056 0
0.236541 0.951056 0
0.25 1 0
0.382169 0.964303 0
0.332168 0.964303 0
0.35 1 0
0.966209 0.0823575 0
1 0.05 0
0.876558 0.0357485 0
0.826558 0.0357485 0
0.85 0 0
0.710547 0.227526 0
0.663415 0.224132 0
0.686826 0.263198 0
0.964263 0.272229 0
1 0.25 0
0.40098 0.934133 0
0.418811 0.96983 0
0.45 1 0
0.326813 0.219104 0
0.290186 0.248584 0
0.336805 0.267084 0
0.243052 0.23639 0
0.253043 0.28437 0
0.224721 0.582616 0
0.220205 0.636726 0
0.252082 0.610769 0
0.92046 0.10812 0
0.954252 0.125762 0
0.66166 0.32475 0
0.662288 0.283458 0
0.639066 0.301096 0
0.949255 0.366653 0
0.949255 0.316653 0
1 0.35 0
0.291542 0.723459 0
0.27993 0.682005 0
0.259178 0.706333 0
0.394055 0.89916 0
0.430698 0.904686 0
0.531524 0.28422 0
0.492115 0.297124 0
0.522791 0.316692 0
0.040646 0.122453 0
0.040646 0.172453 0
0 0.15 0
1 0.15 0
0.151681 0.262718 0
0.192069 0.222774 0
0.137841 0.213317 0
0.558428 0.264284 0
0.600947 0.281797 0
0.597175 0.242291 0
0.508973 0.20957 0
0.551071 0.183459 0
0.505387 0.168251 0
0.118847 0.906605 0
0.088766 0.958276 0
0.3123 0.881198 0
0.329373 0.835836 0
0.290155 0.856751 0
0.18042 0.709353 0
0.223182 0.704287 0
0.204805 0.669945 0
0.114037 0.464054 0
0.157422 0.486991 0
0.15195 0.441504 0
0.279361 0.505346 0
0.248729 0.459236 0
0.225966 0.51055 0
0.423399 0.442555 0
0.448567 0.488847 0
0.892767 0.068106 0
0.65 0 0
0.901255 0.379406 0
0.952 0.412754 0
0.858877 0.146767 0
0.822019 0.189153 0
0.871644 0.19391 0
0.14825 0.528535 0
0.186162 0.505985 0
0.178931 0.775801 0
0.161815 0.746482 0
0.141948 0.778588 0
0.29813 0.591225 0
0.34111 0.580516 0
0.299577 0.545951 0
0.913519 0.288882 0
0.881657 0.240376 0
0.866648 0.2848 0
0.664882 0.143162 0
0.708469 0.158169 0
0.686215 0.112871 0
0.768308 0.293401 0
0.818722 0.278253 0
0.784372 0.251443 0
0.407693 0.254387 0
0.452622 0.232766 0
0.418361 0.215983 0
0.559238 0.352343 0
0.519829 0.365247 0
0.269689 0.146391 0
0.323596 0.167402 0
0.313091 0.113188 0
0.367897 0.0645775 0
0.396163 0.0349765 0
0.220028 0.321352 0
0.17678 0.307097 0
0.190899 0.356272 0
0.584604 0.203855 0
0.581018 0.162535 0
0.250656 0.860137 0
0.267729 0.814776 0
0.359821 0.770477 0
0.31886 0.781193 0
0.348189 0.800674 0
0.124404 0.679582 0
0.141706 0.637726 0
0.104067 0.642297 0
0.216622 0.899385 0
0.203213 0.085617 0
0.162735 0.126214 0
0.218707 0.132775 0
0.0893725 0.199083 0
0.129761 0.159139 0
0.121022 0.819921 0
0.103905 0.790602 0
0.193647 0.813034 0
0.159614 0.852282 0
0.194196 0.85741 0
0.650843 0.185696 0
0.628589 0.140398 0
0.504917 0.076007 0
0.50366 0.114367 0
0.548742 0.103779 0
0.378761 0.595487 0
0.380208 0.550214 0
0.466523 0.368506 0
0.783675 0.0347525 0
0.75 0 0
0.595056 0.120002 0
0.20263 0.384402 0
0.183224 0.431359 0
0.214741 0.417484 0
0.084015 0.29788 0
0.109114 0.342258 0
0.122552 0.29764 0
0.370334 0.82512 0
0.387646 0.864998 0
0.406461 0.829835 0
0.355164 0.351116 0
0.345461 0.389393 0
0.38124 0.369312 0
0.177444 0.641792 0
0.157107 0.604507 0
0.0286115 0.437949 0
0.0286115 0.487949 0
0 0.45 0
0.184917 0.578051 0
0.216794 0.552094 0
0.310754 0.412615 0
0.268135 0.41228 0
0.13984 0.408422 0
0.159382 0.370147 0
0.128108 0.380293 0
0.784378 0.167398 0
0.797145 0.21454 0
0.649424 0.382815 0
0.693196 0.390508 0
0.682209 0.350082 0
0.471401 0.267911 0
0.482069 0.229507 0
0.600319 0.323089 0
0.597356 0.371644 0
0.370215 0.185901 0
0.420304 0.369225 0
0.410601 0.407502 0
0.5 0.65 0
0.293615 0.645334 0
0.325979 0.66246 0
0.342624 0.703635 0
0.356309 0.666965 0
0.24951 0.782974 0
0.289009 0.779588 0
0.810542 0.362514 0
0.76432 0.338993 0
0.772204 0.381296 0
0.70942 0.286852 0
0.705431 0.332443 0
0.729969 0.312184 0
0.831184 0.106754 0
0.88081 0.111511 0
0.700748 0.430301 0
0.733534 0.397568 0
0.850584 0.326758 0
0.229212 0.186988 0
0.407496 0.52144 0
0.369845 0.506468 0
0.413594 0.760165 0
0.405497 0.719256 0
0.381051 0.749049 0
0.444574 0.794979 0
0.383872 0.640216 0
0.400517 0.681391 0
0.355233 0.0967005 0
0.42608 0.078274 0
0.379662 0.102076 0
0.055907 0.589708 0
0.0873405 0.613876 0
0.072862 0.718619 0
0.0918955 0.751177 0
0.105798 0.716711 0
0.234794 0.74574 0
0.213514 0.780928 0
0.143437 0.712141 0
0.72332 0.190623 0
0.744653 0.160332 0
0.788301 0.105758 0
0.748577 0.0986915 0
0.769527 0.134944 0
0.357928 0.894445 0
0.318709 0.915359 0
0.0802555 0.874244 0
0.121571 0.864297 0
0.32234 0.494638 0
0.349629 0.465863 0
0.384335 0.442641 0
0.336831 0.43081 0
0.608343 0.412069 0
0.527752 0.244716 0
0.858468 0.369061 0
0.627123 0.221367 0
0.382188 0.284319 0
0.345561 0.3138 0
0.437163 0.330315 0
0.746731 0.229689 0
0.149179 0.573985 0
0.720027 0.100984 0
0.810234 0.070501 0
0.861213 0.415162 0
0.827831 0.478851 0
0.85 0.5 0
0.082894 0.447232 0
0.0883665 0.492719 0
0.0578625 0.514002 0
0.300642 0.749391 0
0.351723 0.729569 0
0.321394 0.725064 0
0.416449 0.301103 0
0.462668 0.300384 0
0.837044 0.431259 0
</DataArray>
</Points>
<Cells>
<DataArray  type="UInt32"  Name="connectivity"  format="ascii">
1 138 139 
14 137 139 
45 137 138 
137 138 139 
4 141 142 
27 140 142 
65 140 141 
140 141 142 
0 144 145 
23 143 145 
43 143 144 
143 144 145 
4 141 147 
65 141 146 
105 146 147 
141 146 147 
5 149 150 
31 148 150 
47 148 149 
148 149 150 
2 152 153 
32 151 153 
44 151 152 
151 152 153 
2 152 155 
15 154 155 
44 152 154 
152 154 155 
15 154 157 
44 154 156 
101 156 157 
154 156 157 
6 159 160 
43 158 160 
93 158 159 
158 159 160 
15 162 163 
16 161 163 
71 161 162 
161 162 163 
6 159 165 
7 164 165 
93 159 164 
159 164 165 
[...]
<PointData  Vectors="u"> 
<DataArray  type="Float32"  Name="u"  NumberOfComponents="3" format="ascii">
 0.000000e+00 0.000000e+00 0.000000e+00
 4.085678e-02 -2.045881e-02 0.000000e+00
 2.554103e-02 -4.785884e-02 0.000000e+00
 2.751454e-02 1.978417e-02 0.000000e+00
 0.000000e+00 0.000000e+00 0.000000e+00
 -2.931995e-02 -5.998635e-02 0.000000e+00
 0.000000e+00 0.000000e+00 0.000000e+00
 0.000000e+00 0.000000e+00 0.000000e+00
 0.000000e+00 0.000000e+00 0.000000e+00
 0.000000e+00 0.000000e+00 0.000000e+00
 0.000000e+00 0.000000e+00 0.000000e+00
 0.000000e+00 0.000000e+00 0.000000e+00
 0.000000e+00 0.000000e+00 0.000000e+00
 0.000000e+00 0.000000e+00 0.000000e+00
 0.000000e+00 0.000000e+00 0.000000e+00
 0.000000e+00 0.000000e+00 0.000000e+00
 0.000000e+00 0.000000e+00 0.000000e+00
 0.000000e+00 0.000000e+00 0.000000e+00
 0.000000e+00 0.000000e+00 0.000000e+00
 0.000000e+00 0.000000e+00 0.000000e+00
 0.000000e+00 0.000000e+00 0.000000e+00
 0.000000e+00 0.000000e+00 0.000000e+00
 0.000000e+00 0.000000e+00 0.000000e+00
 0.000000e+00 0.000000e+00 0.000000e+00
 0.000000e+00 0.000000e+00 0.000000e+00
 0.000000e+00 0.000000e+00 0.000000e+00
 0.000000e+00 0.000000e+00 0.000000e+00
 0.000000e+00 0.000000e+00 0.000000e+00
 0.000000e+00 0.000000e+00 0.000000e+00
 0.000000e+00 0.000000e+00 0.000000e+00
 0.000000e+00 0.000000e+00 0.000000e+00
 0.000000e+00 0.000000e+00 0.000000e+00
 2.725888e-02 -1.898829e-01 0.000000e+00
 1.107384e-02 -3.151560e-01 0.000000e+00
 -6.840259e-03 -3.236246e-01 0.000000e+00
 -2.690460e-02 -2.067730e-01 0.000000e+00
 2.137620e-01 -1.322747e-02 0.000000e+00
 3.371656e-01 7.980055e-03 0.000000e+00
 3.203771e-01 2.188134e-02 0.000000e+00
 1.823189e-01 2.672613e-02 0.000000e+00
 1.543369e-01 -2.057333e-01 0.000000e+00
 2.815601e-02 -3.532198e-01 0.000000e+00
 3.701782e-01 -1.817627e-02 0.000000e+00
 -3.397892e-03 3.081127e-03 0.000000e+00
 2.504563e-02 -8.864808e-02 0.000000e+00
 1.451727e-01 -9.249322e-03 0.000000e+00
 6.728406e-02 1.824819e-02 0.000000e+00
 -2.467364e-02 -1.399236e-01 0.000000e+00
 5.705959e-02 -2.601862e-01 0.000000e+00
 2.972773e-01 -1.706087e-01 0.000000e+00
 3.663391e-01 2.713919e-02 0.000000e+00
 4.987963e-03 -3.429832e-01 0.000000e+00
 4.615665e-02 -6.213552e-02 0.000000e+00
 1.730453e-01 -6.144224e-02 0.000000e+00
 2.971477e-01 -2.958280e-02 0.000000e+00
 8.509895e-03 -2.317125e-01 0.000000e+00
 1.361011e-02 -2.892112e-01 0.000000e+00
 7.661338e-02 -3.409621e-01 0.000000e+00
 3.862184e-02 -1.389678e-01 0.000000e+00
 3.032000e-01 1.135278e-02 0.000000e+00
 2.335455e-01 2.249013e-02 0.000000e+00
 1.545524e-02 -2.021396e-01 0.000000e+00
 1.387059e-02 -2.787244e-01 0.000000e+00
 3.128395e-01 8.273478e-03 0.000000e+00
 2.888121e-01 2.847975e-02 0.000000e+00
 1.680153e-01 -5.978168e-02 0.000000e+00
 6.576491e-02 -3.005674e-02 0.000000e+00
 2.860036e-01 -9.081006e-02 0.000000e+00
 -8.030393e-03 -1.657591e-01 0.000000e+00
 9.420627e-03 -3.480631e-01 0.000000e+00
 4.298989e-03 -6.686795e-03 0.000000e+00
 6.530431e-03 -1.542473e-01 0.000000e+00
 1.640345e-01 -5.015862e-03 0.000000e+00
 1.786231e-01 -2.999785e-01 0.000000e+00
 2.488671e-01 1.061484e-03 0.000000e+00
 1.775602e-01 -2.099953e-02 0.000000e+00
 2.003726e-02 -1.221607e-01 0.000000e+00
 7.146360e-04 -3.461478e-01 0.000000e+00
 5.697904e-02 -3.424367e-01 0.000000e+00
 2.082218e-02 -1.733856e-01 0.000000e+00
 9.405315e-02 -2.369036e-01 0.000000e+00
 1.353354e-02 -4.618544e-02 0.000000e+00
 2.729509e-01 -1.200895e-02 0.000000e+00
 3.539020e-01 -6.373307e-02 0.000000e+00
 2.202693e-01 -1.526814e-01 0.000000e+00
 3.684078e-02 -3.334172e-01 0.000000e+00
 1.493918e-02 -3.579658e-01 0.000000e+00
 3.626798e-01 2.044106e-02 0.000000e+00
 3.536837e-01 2.095685e-02 0.000000e+00
 1.674581e-01 4.057628e-03 0.000000e+00
 1.453420e-01 1.929838e-02 0.000000e+00
 1.274622e-01 -1.150506e-01 0.000000e+00
 3.591657e-02 -2.303968e-01 0.000000e+00
 8.642213e-03 -9.889761e-03 0.000000e+00
 2.247290e-03 -2.413666e-01 0.000000e+00
 1.033860e-02 -1.697699e-01 0.000000e+00
 7.818405e-02 -1.433736e-02 0.000000e+00
 5.648938e-03 -1.471649e-01 0.000000e+00
 1.698132e-02 -2.821218e-01 0.000000e+00
 3.157082e-01 1.548589e-02 0.000000e+00
 -1.539047e-02 -2.731872e-01 0.000000e+00
 1.811273e-02 -1.511077e-01 0.000000e+00
 1.046927e-02 -2.894879e-01 0.000000e+00
 1.137674e-01 -3.246913e-01 0.000000e+00
 7.489083e-02 -1.444277e-01 0.000000e+00
 2.074624e-01 -2.329078e-01 0.000000e+00
 7.178507e-02 7.656516e-03 0.000000e+00
 3.360809e-01 -8.127166e-02 0.000000e+00
 3.027237e-01 3.138442e-02 0.000000e+00
 3.562291e-01 -1.930891e-02 0.000000e+00
 2.329667e-01 -2.367393e-01 0.000000e+00
 3.684785e-01 5.171517e-03 0.000000e+00
 7.374164e-03 -4.410833e-02 0.000000e+00
 5.347452e-02 1.112708e-02 0.000000e+00
 3.642447e-02 -2.728402e-01 0.000000e+00
 1.908149e-01 5.636537e-03 0.000000e+00
 3.088210e-02 -3.072549e-01 0.000000e+00
 5.080995e-02 -1.975990e-01 0.000000e+00
 2.207582e-03 -9.251738e-02 0.000000e+00
 1.211347e-01 1.600551e-02 0.000000e+00
 3.424441e-03 -1.309894e-01 0.000000e+00
 4.881611e-03 -5.435681e-02 0.000000e+00
 4.411650e-03 -6.970295e-02 0.000000e+00
 1.151835e-02 -3.295610e-01 0.000000e+00
 2.148488e-02 -3.468283e-01 0.000000e+00
 3.255389e-01 7.606748e-03 0.000000e+00
 2.761496e-03 -6.950375e-02 0.000000e+00
 1.450445e-02 -3.295556e-01 0.000000e+00
 1.171846e-01 -1.814354e-02 0.000000e+00
 -4.958466e-03 -2.980960e-01 0.000000e+00
 1.193861e-01 -3.029366e-01 0.000000e+00
 1.594020e-01 -2.750258e-01 0.000000e+00
 1.726023e-01 6.255084e-03 0.000000e+00
 2.864797e-01 -1.625887e-01 0.000000e+00
 3.680176e-01 1.931019e-02 0.000000e+00
 4.203219e-02 5.512507e-03 0.000000e+00
 3.294326e-01 -1.208150e-01 0.000000e+00
 6.605077e-02 -5.244042e-03 0.000000e+00
 6.974187e-02 -1.788501e-02 0.000000e+00
 0.000000e+00 0.000000e+00 0.000000e+00
 2.394848e-02 -8.952537e-03 0.000000e+00
 6.879894e-02 -5.292036e-02 0.000000e+00
 0.000000e+00 0.000000e+00 0.000000e+00
 -1.581484e-03 5.052832e-03 0.000000e+00
 -2.142944e-03 2.135609e-03 0.000000e+00
 0.000000e+00 0.000000e+00 0.000000e+00
 1.985343e-01 -1.397658e-01 0.000000e+00
 1.222327e-01 -1.639960e-01 0.000000e+00
 -1.283833e-02 -6.705302e-02 0.000000e+00
 -2.853156e-02 -8.010472e-02 0.000000e+00
 0.000000e+00 0.000000e+00 0.000000e+00
 2.965756e-02 -1.402913e-01 0.000000e+00
 2.622917e-02 -5.878806e-02 0.000000e+00
 3.106615e-02 -9.913726e-02 0.000000e+00
 1.052176e-02 -3.898447e-02 0.000000e+00
 0.000000e+00 0.000000e+00 0.000000e+00
 2.142553e-02 -1.190159e-01 0.000000e+00
 9.596488e-03 -6.710070e-02 0.000000e+00
 -7.382970e-04 -2.100762e-03 0.000000e+00
 -3.951064e-03 -8.827952e-04 0.000000e+00
 -4.818964e-03 1.284930e-03 0.000000e+00
 1.731043e-03 -6.017759e-02 0.000000e+00
 3.747611e-03 -6.567802e-02 0.000000e+00
 0.000000e+00 0.000000e+00 0.000000e+00
 2.441302e-03 -3.418163e-03 0.000000e+00
 0.000000e+00 0.000000e+00 0.000000e+00
 0.000000e+00 0.000000e+00 0.000000e+00
 7.608363e-02 -2.261867e-02 0.000000e+00
 3.100553e-02 -3.988580e-03 0.000000e+00
 3.676409e-02 -8.940663e-03 0.000000e+00
 3.653212e-03 -1.230440e-01 0.000000e+00
 6.034390e-04 -3.360563e-02 0.000000e+00
 5.371579e-04 -3.172577e-02 0.000000e+00
 0.000000e+00 0.000000e+00 0.000000e+00
 7.507916e-03 -1.099880e-02 0.000000e+00
 3.629067e-05 6.805351e-04 0.000000e+00
 1.961317e-02 -7.533046e-03 0.000000e+00
 0.000000e+00 0.000000e+00 0.000000e+00
 4.361333e-02 -3.882950e-03 0.000000e+00
 0.000000e+00 0.000000e+00 0.000000e+00
 9.754273e-02 -4.785492e-03 0.000000e+00
 8.469990e-02 -6.596537e-03 0.000000e+00
 0.000000e+00 0.000000e+00 0.000000e+00
 2.480735e-01 -5.196858e-02 0.000000e+00
 1.844796e-01 -3.963992e-02 0.000000e+00
 2.316239e-01 -7.971804e-02 0.000000e+00
 8.215709e-02 -2.489482e-04 0.000000e+00
 7.852102e-02 -1.507525e-03 0.000000e+00
 0.000000e+00 0.000000e+00 0.000000e+00
 2.093014e-01 -3.061475e-03 0.000000e+00
 1.284721e-01 7.023261e-04 0.000000e+00
 9.355939e-02 1.594797e-02 0.000000e+00
 4.340690e-02 6.609221e-03 0.000000e+00
 2.333644e-02 6.897612e-03 0.000000e+00
 4.229875e-03 -1.076405e-01 0.000000e+00
 5.543147e-04 -2.445950e-02 0.000000e+00
 1.345443e-03 -5.502660e-02 0.000000e+00
 7.406142e-04 -2.207376e-02 0.000000e+00
 0.000000e+00 0.000000e+00 0.000000e+00
 1.260024e-01 -2.609961e-01 0.000000e+00
 1.599884e-01 -2.413129e-01 0.000000e+00
 1.233309e-01 -2.270617e-01 0.000000e+00
 9.330625e-03 -1.068950e-01 0.000000e+00
 3.013479e-02 -1.383366e-01 0.000000e+00
 0.000000e+00 0.000000e+00 0.000000e+00
 1.892645e-02 -1.970578e-01 0.000000e+00
 3.976641e-03 -7.796317e-02 0.000000e+00
 6.172060e-03 -1.489910e-01 0.000000e+00
 1.188916e-03 -5.386760e-02 0.000000e+00
 2.317368e-03 -7.002779e-02 0.000000e+00
 4.782841e-04 -5.103001e-02 0.000000e+00
 0.000000e+00 0.000000e+00 0.000000e+00
 1.356934e-02 -3.024089e-01 0.000000e+00
 2.050417e-02 -2.420659e-01 0.000000e+00
 1.954560e-02 -2.662585e-01 0.000000e+00
 8.043960e-02 1.000149e-02 0.000000e+00
 1.273770e-02 1.849905e-03 0.000000e+00
 1.258683e-01 2.538950e-02 0.000000e+00
 3.808825e-02 1.972360e-02 0.000000e+00
 8.318568e-02 2.563504e-02 0.000000e+00
 2.224855e-01 4.316032e-03 0.000000e+00
 8.944003e-02 2.416093e-03 0.000000e+00
 1.274070e-01 2.519505e-03 0.000000e+00
 9.879795e-02 1.546504e-02 0.000000e+00
 7.935013e-03 3.994784e-03 0.000000e+00
 4.103397e-02 7.062869e-03 0.000000e+00
 1.821192e-01 6.277120e-03 0.000000e+00
 8.194137e-02 2.240590e-03 0.000000e+00
 0.000000e+00 0.000000e+00 0.000000e+00
 -1.518885e-03 4.037865e-03 0.000000e+00
 0.000000e+00 0.000000e+00 0.000000e+00
 1.166454e-03 -1.978159e-02 0.000000e+00
 1.016734e-03 -2.366389e-02 0.000000e+00
 0.000000e+00 0.000000e+00 0.000000e+00
 1.106139e-02 -1.236830e-01 0.000000e+00
 9.711579e-03 -1.360215e-01 0.000000e+00
 1.829405e-02 -1.889677e-01 0.000000e+00
 -5.369527e-03 -7.511238e-02 0.000000e+00
 -1.083964e-03 -6.868170e-02 0.000000e+00
 0.000000e+00 0.000000e+00 0.000000e+00
 1.330812e-02 -8.027274e-02 0.000000e+00
 1.454632e-03 -1.152451e-02 0.000000e+00
 4.355666e-03 -3.759312e-02 0.000000e+00
 3.489857e-01 1.508824e-02 0.000000e+00
 3.483847e-01 1.392369e-02 0.000000e+00
 3.281952e-01 6.581854e-03 0.000000e+00
 -6.105164e-03 3.047408e-03 0.000000e+00
 -5.567617e-04 4.839802e-03 0.000000e+00
 0.000000e+00 0.000000e+00 0.000000e+00
 1.203052e-03 -6.452177e-03 0.000000e+00
 0.000000e+00 0.000000e+00 0.000000e+00
 2.050183e-03 -4.660740e-03 0.000000e+00
 2.590435e-03 -1.125151e-02 0.000000e+00
 0.000000e+00 0.000000e+00 0.000000e+00
 -3.586478e-03 -3.334183e-01 0.000000e+00
 4.842116e-03 -3.352333e-01 0.000000e+00
 2.427283e-03 -3.345901e-01 0.000000e+00
 -2.200947e-02 -2.397095e-01 0.000000e+00
 -1.245512e-02 -3.025440e-01 0.000000e+00
 -1.687510e-02 -2.809953e-01 0.000000e+00
 1.809657e-01 -1.416089e-02 0.000000e+00
 1.051348e-01 -2.113300e-02 0.000000e+00
 7.323463e-02 3.597511e-04 0.000000e+00
 7.567799e-02 1.984332e-03 0.000000e+00
 0.000000e+00 0.000000e+00 0.000000e+00
 3.782573e-01 1.210169e-02 0.000000e+00
 3.778972e-01 -4.768099e-03 0.000000e+00
 3.680456e-01 5.167937e-03 0.000000e+00
 3.401690e-01 2.083767e-02 0.000000e+00
 3.442338e-01 1.606773e-02 0.000000e+00
 -2.116387e-02 -2.132640e-01 0.000000e+00
 -2.894029e-02 -1.745589e-01 0.000000e+00
 -3.242979e-02 -1.130454e-01 0.000000e+00
 1.730040e-01 -1.370058e-01 0.000000e+00
 1.434557e-01 -1.594906e-01 0.000000e+00
 1.883570e-01 -1.827258e-01 0.000000e+00
 1.013707e-01 -1.350308e-01 0.000000e+00
 1.128320e-01 -1.791493e-01 0.000000e+00
 4.289534e-02 -3.296095e-01 0.000000e+00
 3.068741e-02 -3.360430e-01 0.000000e+00
 4.073032e-02 -3.497095e-01 0.000000e+00
 2.426120e-01 -1.101350e-03 0.000000e+00
 2.673608e-01 -3.439859e-03 0.000000e+00
 3.015008e-01 -1.592957e-03 0.000000e+00
 3.537998e-01 -5.412628e-03 0.000000e+00
 3.377061e-01 -1.731022e-02 0.000000e+00
 2.411334e-01 2.594354e-02 0.000000e+00
 3.080260e-01 2.551264e-02 0.000000e+00
 2.660810e-01 2.538280e-02 0.000000e+00
 1.804503e-02 -3.549111e-01 0.000000e+00
 2.583613e-02 -3.579661e-01 0.000000e+00
 2.120659e-02 -3.576821e-01 0.000000e+00
 -1.423739e-02 -2.287836e-01 0.000000e+00
 -1.470382e-02 -1.527603e-01 0.000000e+00
 3.408789e-01 -1.055100e-01 0.000000e+00
 3.182565e-01 -1.465878e-01 0.000000e+00
 3.191764e-01 -1.239695e-01 0.000000e+00
 -4.386468e-04 5.525391e-03 0.000000e+00
 5.253881e-04 3.462872e-03 0.000000e+00
 0.000000e+00 0.000000e+00 0.000000e+00
 2.949773e-01 -2.194533e-03 0.000000e+00
 3.867485e-02 -9.822251e-02 0.000000e+00
 6.144048e-02 -1.008280e-01 0.000000e+00
 2.848736e-02 -6.145170e-02 0.000000e+00
 3.554905e-01 -7.626210e-02 0.000000e+00
 3.560014e-01 -4.549962e-02 0.000000e+00
 3.692320e-01 -4.237910e-02 0.000000e+00
 3.246209e-01 -8.152520e-02 0.000000e+00
 3.347470e-01 -4.671822e-02 0.000000e+00
 2.994851e-01 -5.728201e-02 0.000000e+00
 1.685717e-02 -2.290280e-01 0.000000e+00
 2.583229e-02 -1.717935e-01 0.000000e+00
 -3.001244e-03 -3.327843e-01 0.000000e+00
 1.771883e-04 -3.243204e-01 0.000000e+00
 1.748245e-03 -3.468245e-01 0.000000e+00
 1.610888e-02 -3.091099e-01 0.000000e+00
 2.011736e-02 -3.446267e-01 0.000000e+00
 2.327627e-02 -3.285201e-01 0.000000e+00
 2.098343e-02 -1.480444e-01 0.000000e+00
 3.681559e-02 -2.243415e-01 0.000000e+00
 3.820840e-02 -1.961763e-01 0.000000e+00
 8.159903e-02 -3.379132e-01 0.000000e+00
 8.515779e-02 -3.028112e-01 0.000000e+00
 6.102548e-02 -3.091770e-01 0.000000e+00
 1.604713e-01 -2.724566e-01 0.000000e+00
 8.676439e-02 -2.053832e-01 0.000000e+00
 1.556161e-01 -4.558549e-04 0.000000e+00
 0.000000e+00 0.000000e+00 0.000000e+00
 2.150301e-01 2.427741e-02 0.000000e+00
 1.555269e-01 2.367610e-02 0.000000e+00
 3.149854e-01 1.348841e-02 0.000000e+00
 3.591947e-01 2.146852e-02 0.000000e+00
 3.545890e-01 1.950237e-02 0.000000e+00
 2.917207e-02 -2.266891e-01 0.000000e+00
 4.634385e-02 -2.686611e-01 0.000000e+00
 1.168517e-02 -3.120122e-01 0.000000e+00
 1.193497e-02 -2.897713e-01 0.000000e+00
 9.620170e-03 -2.633379e-01 0.000000e+00
 5.059091e-02 -3.546277e-01 0.000000e+00
 5.338811e-02 -3.380553e-01 0.000000e+00
 6.868117e-02 -3.508979e-01 0.000000e+00
 3.347874e-01 2.681887e-02 0.000000e+00
 3.602797e-01 2.497201e-02 0.000000e+00
 3.405114e-01 2.997421e-02 0.000000e+00
 3.259986e-01 2.052648e-03 0.000000e+00
 3.446573e-01 1.000894e-02 0.000000e+00
 2.788863e-01 6.295155e-03 0.000000e+00
 3.366708e-01 2.837721e-02 0.000000e+00
 3.480079e-01 3.087842e-02 0.000000e+00
 3.668527e-01 2.729273e-02 0.000000e+00
 2.548451e-01 -1.610473e-01 0.000000e+00
 2.908912e-01 -1.252399e-01 0.000000e+00
 2.568488e-01 -1.236108e-01 0.000000e+00
 2.739489e-01 -8.085373e-02 0.000000e+00
 2.623921e-01 -1.287604e-01 0.000000e+00
 1.027855e-01 -6.862131e-02 0.000000e+00
 1.553913e-01 -9.044846e-02 0.000000e+00
 1.167011e-01 -4.665239e-02 0.000000e+00
 9.723258e-02 -1.637736e-02 0.000000e+00
 5.833630e-02 -4.703652e-03 0.000000e+00
 8.644920e-02 -1.906709e-01 0.000000e+00
 5.580785e-02 -1.469533e-01 0.000000e+00
 6.480121e-02 -1.923919e-01 0.000000e+00
 3.586295e-01 -3.896627e-02 0.000000e+00
 3.306168e-01 -2.639830e-02 0.000000e+00
 5.478322e-03 -3.509802e-01 0.000000e+00
 7.478956e-03 -3.552963e-01 0.000000e+00
 6.564254e-03 -2.931501e-01 0.000000e+00
 8.006908e-03 -3.372733e-01 0.000000e+00
 3.341838e-03 -3.067296e-01 0.000000e+00
 1.103412e-02 -2.224178e-01 0.000000e+00
 1.686326e-02 -2.452455e-01 0.000000e+00
 9.659281e-03 -1.771394e-01 0.000000e+00
 7.979002e-03 -3.365310e-01 0.000000e+00
 3.214574e-02 -2.073791e-02 0.000000e+00
 2.793185e-02 -3.118622e-02 0.000000e+00
 6.132056e-02 -4.975848e-02 0.000000e+00
 9.177995e-03 -2.335865e-02 0.000000e+00
 1.980631e-02 -3.238007e-02 0.000000e+00
 9.082930e-03 -2.305442e-01 0.000000e+00
 6.685666e-03 -1.949518e-01 0.000000e+00
 1.064345e-02 -3.265778e-01 0.000000e+00
 1.146848e-02 -2.902767e-01 0.000000e+00
 1.013794e-02 -3.253515e-01 0.000000e+00
 3.643608e-01 -6.092348e-03 0.000000e+00
 3.184438e-01 -5.832797e-03 0.000000e+00
 1.759389e-01 -1.202564e-02 0.000000e+00
 2.417343e-01 -2.752250e-02 0.000000e+00
 2.430245e-01 -1.496396e-02 0.000000e+00
 3.911016e-02 -2.933498e-01 0.000000e+00
 6.102853e-02 -3.054901e-01 0.000000e+00
 2.569632e-01 -2.039449e-01 0.000000e+00
 7.701508e-02 2.261111e-03 0.000000e+00
 0.000000e+00 0.000000e+00 0.000000e+00
 2.827434e-01 -9.964883e-03 0.000000e+00
 7.106865e-02 -2.214124e-01 0.000000e+00
 5.488992e-02 -2.300199e-01 0.000000e+00
 7.500382e-02 -2.528970e-01 0.000000e+00
 1.037916e-02 -4.711157e-02 0.000000e+00
 2.007759e-02 -9.247014e-02 0.000000e+00
 2.490442e-02 -8.844253e-02 0.000000e+00
 -1.314460e-03 -2.736052e-01 0.000000e+00
 -7.969959e-03 -2.419200e-01 0.000000e+00
 -2.895060e-03 -2.040562e-01 0.000000e+00
 1.955671e-01 -2.609572e-01 0.000000e+00
 1.722404e-01 -2.915704e-01 0.000000e+00
 2.091710e-01 -2.709737e-01 0.000000e+00
 2.308101e-02 -2.965012e-01 0.000000e+00
 2.343329e-02 -2.618565e-01 0.000000e+00
 1.006465e-03 -1.128889e-02 0.000000e+00
 1.128522e-03 -1.594569e-02 0.000000e+00
 0.000000e+00 0.000000e+00 0.000000e+00
 3.398780e-02 -2.913157e-01 0.000000e+00
 4.783305e-02 -3.156890e-01 0.000000e+00
 1.375213e-01 -3.035238e-01 0.000000e+00
 1.098982e-01 -2.867848e-01 0.000000e+00
 3.380507e-02 -1.635264e-01 0.000000e+00
 4.513814e-02 -1.679311e-01 0.000000e+00
 2.869604e-02 -1.342650e-01 0.000000e+00
 3.479179e-01 1.858383e-02 0.000000e+00
 3.709721e-01 2.451163e-02 0.000000e+00
 1.776930e-01 1.665704e-03 0.000000e+00
 1.558625e-01 1.510330e-02 0.000000e+00
 2.507850e-01 1.063935e-02 0.000000e+00
 3.096933e-01 -1.432144e-01 0.000000e+00
 3.127004e-01 -1.085076e-01 0.000000e+00
 3.129803e-01 -4.461850e-02 0.000000e+00
 2.202254e-01 -3.458899e-02 0.000000e+00
 2.035974e-01 -1.049124e-01 0.000000e+00
 2.359858e-01 -2.510623e-01 0.000000e+00
 1.985449e-01 -2.786061e-01 0.000000e+00
 0.000000e+00 0.000000e+00 0.000000e+00
 3.414729e-02 -3.560477e-01 0.000000e+00
 2.840481e-02 -3.404562e-01 0.000000e+00
 1.820781e-02 -3.212063e-01 0.000000e+00
 2.369293e-02 -3.094404e-01 0.000000e+00
 1.137239e-02 -3.556624e-01 0.000000e+00
 1.005188e-02 -3.533210e-01 0.000000e+00
 2.325874e-01 2.804744e-02 0.000000e+00
 2.717056e-01 2.841082e-02 0.000000e+00
 1.874229e-01 2.447022e-02 0.000000e+00
 3.473618e-01 1.524394e-02 0.000000e+00
 2.839658e-01 1.746331e-02 0.000000e+00
 3.150653e-01 2.238666e-02 0.000000e+00
 2.520083e-01 9.755260e-03 0.000000e+00
 2.549600e-01 5.756880e-03 0.000000e+00
 5.981380e-02 1.123988e-02 0.000000e+00
 1.431440e-01 1.942068e-02 0.000000e+00
 2.954335e-01 3.092479e-02 0.000000e+00
 8.330901e-02 -9.103397e-02 0.000000e+00
 7.124951e-02 -2.752770e-01 0.000000e+00
 9.508262e-02 -3.255376e-01 0.000000e+00
 3.653715e-03 -1.898440e-01 0.000000e+00
 8.095316e-03 -2.127213e-01 0.000000e+00
 7.531941e-03 -2.597960e-01 0.000000e+00
 2.762870e-04 -1.105355e-01 0.000000e+00
 2.424496e-02 -2.723823e-01 0.000000e+00
 1.325434e-02 -2.299728e-01 0.000000e+00
 1.308821e-01 -3.522007e-02 0.000000e+00
 1.473737e-01 -2.027180e-02 0.000000e+00
 1.527598e-01 -3.763610e-02 0.000000e+00
 3.545169e-03 -7.008373e-02 0.000000e+00
 7.895728e-03 -1.380176e-01 0.000000e+00
 3.538444e-03 -1.205763e-01 0.000000e+00
 5.167663e-03 -1.657576e-01 0.000000e+00
 7.132909e-03 -1.912641e-01 0.000000e+00
 1.541367e-02 -3.517752e-01 0.000000e+00
 1.208466e-02 -3.412411e-01 0.000000e+00
 1.183270e-02 -2.594765e-01 0.000000e+00
 3.692804e-01 1.367839e-02 0.000000e+00
 3.449432e-01 1.508401e-02 0.000000e+00
 2.558105e-01 1.094003e-02 0.000000e+00
 2.455503e-01 9.619547e-03 0.000000e+00
 3.104974e-01 1.435197e-02 0.000000e+00
 -1.028581e-02 -2.863298e-01 0.000000e+00
 -6.763639e-03 -3.237061e-01 0.000000e+00
 1.053750e-02 -1.529426e-01 0.000000e+00
 1.226781e-02 -2.336017e-01 0.000000e+00
 9.911549e-02 -3.419182e-01 0.000000e+00
 1.252808e-01 -3.309920e-01 0.000000e+00
 1.547802e-01 -3.101143e-01 0.000000e+00
 1.438521e-01 -3.175578e-01 0.000000e+00
 1.090722e-01 -1.107761e-02 0.000000e+00
 3.442760e-01 -9.053505e-02 0.000000e+00
 2.276199e-01 2.613374e-02 0.000000e+00
 3.741411e-01 -2.132928e-02 0.000000e+00
 2.322149e-01 -1.958971e-01 0.000000e+00
 1.951063e-01 -2.274196e-01 0.000000e+00