<?xml version="1.0"?>
<VTKFile type="UnstructuredGrid"  version="0.1"  >
<UnstructuredGrid>
<Piece  NumberOfPoints="505" NumberOfCells="928">
<Points>
<DataArray  type="Float32"  NumberOfComponents="3"  format="ascii">
0 0 0
1 0 0
0 1 0
1 0.5 0
0.5 0.5 0
0.5 1 0
0.1 0 0
0.2 0 0
0.3 0 0
0.4 0 0
0.5 0 0
0.6 0 0
0.7 0 0
0.8 0 0
0.9 0 0
0 0.9 0
0 0.8 0
0 0.7 0
0 0.6 0
0 0.5 0
0 0.4 0
0 0.3 0
0 0.2 0
0 0.1 0
0.9 0.5 0
0.8 0.5 0
0.7 0.5 0
0.6 0.5 0
0.5 0.6 0
0.5 0.7 0
0.5 0.8 0
0.5 0.9 0
0.1 1 0
0.2 1 0
0.3 1 0
0.4 1 0
1 0.1 0
1 0.2 0
1 0.3 0
1 0.4 0
0.300178 0.296564 0
0.247566 0.664879 0
0.639694 0.259804 0
0.06564 0.06472 0
0.04439 0.954144 0
0.932418 0.064715 0
0.951013 0.456419 0
0.437622 0.939659 0
0.195334 0.464441 0
0.483382 0.329596 0
0.834786 0.236295 0
0.307228 0.81139 0
0.178229 0.173372 0
0.366998 0.134199 0
0.547485 0.14214 0
0.124832 0.74927 0
0.160163 0.896658 0
0.342556 0.535243 0
0.147651 0.342018 0
0.729803 0.127878 0
0.725981 0.357775 0
0.121369 0.600441 0
0.372954 0.70814 0
0.908503 0.151525 0
0.89851 0.333305 0
0.556275 0.400898 0
0.259184 0.092178 0
0.46329 0.194362 0
0.423773 0.869712 0
0.22823 0.818162 0
0.081292 0.144905 0
0.082979 0.831935 0
0.549999 0.065419 0
0.371537 0.407588 0
0.642628 0.097865 0
0.459835 0.086595 0
0.108565 0.418567 0
0.273082 0.902112 0
0.256598 0.556659 0
0.11951 0.509541 0
0.234147 0.370527 0
0.097453 0.253261 0
0.638438 0.342389 0
0.554656 0.224779 0
0.373432 0.237603 0
0.339663 0.62579 0
0.27079 0.747786 0
0.733958 0.266592 0
0.928527 0.244458 0
0.853116 0.071497 0
0.818426 0.404817 0
0.280194 0.200604 0
0.417859 0.565185 0
0.147241 0.079056 0
0.389149 0.789957 0
0.42808 0.654642 0
0.343469 0.059202 0
0.086765 0.684153 0
0.162043 0.675011 0
0.809252 0.14201 0
0.364337 0.928607 0
0.077532 0.916553 0
0.159064 0.807906 0
0.302124 0.454032 0
0.205909 0.272176 0
0.449664 0.407415 0
0.66041 0.423241 0
0.562201 0.303789 0
0.802658 0.320211 0
0.614551 0.182931 0
0.390944 0.331035 0
0.687136 0.18846 0
0.070577 0.342498 0
0.741087 0.437361 0
0.176989 0.547528 0
0.710251 0.07409 0
0.192845 0.608574 0
0.171114 0.398277 0
0.058959 0.753084 0
0.904 0.425508 0
0.438039 0.730373 0
0.057223 0.475897 0
0.058502 0.552106 0
0.330493 0.750997 0
0.312295 0.699131 0
0.684882 0.307111 0
0.053312 0.627311 0
0.198798 0.743695 0
0.392326 0.069953 0
0.351519 0.860283 0
0.397134 0.477694 0
0.319385 0.371198 0
0.767351 0.069505 0
0.441954 0.271171 0
0.759504 0.192785 0
0.855661 0.457701 0
0.500847 0.264652 0
0.916209 0.0323575 0
0.966209 0.0323575 0
0.95 0 0
0.578137 0.450449 0
0.528137 0.450449 0
0.55 0.5 0
0.03282 0.08236 0
0.03282 0.03236 0
0 0.05 0
0.502969 0.404157 0
0.474832 0.453708 0
0.468811 0.91983 0
0.468811 0.96983 0
0.5 0.95 0
0.072195 0.977072 0
0.022195 0.977072 0
0.05 1 0
0.022195 0.927072 0
0 0.95 0
0.060961 0.935348 0
0.038766 0.908276 0
0.106441 0.071888 0
0.123621 0.039528 0
0.08282 0.03236 0
0.0414895 0.815967 0
0.0414895 0.865968 0
0 0.85 0
0.173621 0.039528 0
0.15 0 0
0.05 0 0
0.301327 0.07569 0
0.321735 0.029601 0
0.279592 0.046089 0
0.070969 0.792509 0
0.0294795 0.776542 0
0.0294795 0.726542 0
0 0.75 0
0.114267 0.111981 0
0.073466 0.104813 0
0.229592 0.046089 0
0.25 0 0
0.371735 0.029601 0
0.35 0 0
0.479917 0.0432975 0
0.429918 0.0432975 0
0.45 0 0
0.461562 0.140479 0
0.413416 0.110397 0
0.415144 0.16428 0
0.574999 0.0327095 0
0.525 0.0327095 0
0.55 0 0
0.596313 0.081642 0
0.621314 0.0489325 0
0.927507 0.440964 0
0.902 0.462754 0
0.925507 0.47821 0
0.0700385 0.655732 0
0.026656 0.663655 0
0.0433825 0.692076 0
0.026656 0.613655 0
0 0.65 0
0.276766 0.370862 0
0.309781 0.333881 0
0.267162 0.333545 0
0.458929 0.582593 0
0.458929 0.532593 0
0.5 0.55 0
0.422969 0.609913 0
0.46404 0.627321 0
0.43306 0.692508 0
0.46902 0.715186 0
0.46404 0.677321 0
0.46902 0.765186 0
0.5 0.75 0
0.180082 0.948329 0
0.130082 0.948329 0
0.15 1 0
0.87983 0.441605 0
0.87783 0.478851 0
0.975507 0.42821 0
0.975507 0.47821 0
1 0.45 0
0.676439 0.0859775 0
0.705125 0.037045 0
0.671314 0.0489325 0
0.779756 0.421089 0
0.770544 0.46868 0
0.809213 0.452408 0
0.738801 0.0717975 0
0.733675 0.0347525 0
0.95 0.5 0
0.720544 0.46868 0
0.75 0.5 0
0.029251 0.526053 0
0.029251 0.576053 0
0 0.55 0
0.089006 0.530824 0
0.0899355 0.576273 0
0.12044 0.554991 0
0.461886 0.884856 0
0.461886 0.834856 0
0.5 0.85 0
0.089571 0.380533 0
0.0352885 0.371249 0
0.0542825 0.409284 0
0.918515 0.197991 0
0.964263 0.222229 0
0.954252 0.175762 0
0.630205 0.46162 0
0.680205 0.46162 0
0.65 0.5 0
0.0352885 0.321249 0
0 0.35 0
0.0487265 0.226631 0
0.0487265 0.276631 0
0 0.25 0
0.286541 0.951056 0
0.236541 0.951056 0
0.25 1 0
0.382169 0.964303 0
0.332168 0.964303 0
0.35 1 0
0.966209 0.0823575 0
1 0.05 0
0.876558 0.0357485 0
0.826558 0.0357485 0
0.85 0 0
0.710547 0.227526 0
0.663415 0.224132 0
0.686826 0.263198 0
0.964263 0.272229 0
1 0.25 0
0.40098 0.934133 0
0.418811 0.96983 0
0.45 1 0
0.326813 0.219104 0
0.290186 0.248584 0
0.336805 0.267084 0
0.243052 0.23639 0
0.253043 0.28437 0
0.224721 0.582616 0
0.220205 0.636726 0
0.252082 0.610769 0
0.92046 0.10812 0
0.954252 0.125762 0
0.66166 0.32475 0
0.662288 0.283458 0
0.639066 0.301096 0
0.949255 0.366653 0
0.949255 0.316653 0
1 0.35 0
0.291542 0.723459 0
0.27993 0.682005 0
0.259178 0.706333 0
0.394055 0.89916 0
0.430698 0.904686 0
0.531524 0.28422 0
0.492115 0.297124 0
0.522791 0.316692 0
0.040646 0.122453 0
0.040646 0.172453 0
0 0.15 0
1 0.15 0
0.151681 0.262718 0
0.192069 0.222774 0
0.137841 0.213317 0
0.558428 0.264284 0
0.600947 0.281797 0
0.597175 0.242291 0
0.508973 0.20957 0
0.551071 0.183459 0
0.505387 0.168251 0
0.118847 0.906605 0
0.088766 0.958276 0
0.3123 0.881198 0
0.329373 0.835836 0
0.290155 0.856751 0
0.18042 0.709353 0
0.223182 0.704287 0
0.204805 0.669945 0
0.114037 0.464054 0
0.157422 0.486991 0
0.15195 0.441504 0
0.279361 0.505346 0
0.248729 0.459236 0
0.225966 0.51055 0
0.423399 0.442555 0
0.448567 0.488847 0
0.892767 0.068106 0
0.65 0 0
0.901255 0.379406 0
0.952 0.412754 0
0.858877 0.146767 0
0.822019 0.189153 0
0.871644 0.19391 0
0.14825 0.528535 0
0.186162 0.505985 0
0.178931 0.775801 0
0.161815 0.746482 0
0.141948 0.778588 0
0.29813 0.591225 0
0.34111 0.580516 0
0.299577 0.545951 0
0.913519 0.288882 0
0.881657 0.240376 0
0.866648 0.2848 0
0.664882 0.143162 0
0.708469 0.158169 0
0.686215 0.112871 0
0.768308 0.293401 0
0.818722 0.278253 0
0.784372 0.251443 0
0.407693 0.254387 0
0.452622 0.232766 0
0.418361 0.215983 0
0.559238 0.352343 0
0.519829 0.365247 0
0.269689 0.146391 0
0.323596 0.167402 0
0.313091 0.113188 0
0.367897 0.0645775 0
0.396163 0.0349765 0
0.220028 0.321352 0
0.17678 0.307097 0
0.190899 0.356272 0
0.584604 0.203855 0
0.581018 0.162535 0
0.250656 0.860137 0
0.267729 0.814776 0
0.359821 0.770477 0
0.31886 0.781193 0
0.348189 0.800674 0
0.124404 0.679582 0
0.141706 0.637726 0
0.104067 0.642297 0
0.216622 0.899385 0
0.203213 0.085617 0
0.162735 0.126214 0
0.218707 0.132775 0
0.0893725 0.199083 0
0.129761 0.159139 0
0.121022 0.819921 0
0.103905 0.790602 0
0.193647 0.813034 0
0.159614 0.852282 0
0.194196 0.85741 0
0.650843 0.185696 0
0.628589 0.140398 0
0.504917 0.076007 0
0.50366 0.114367 0
0.548742 0.103779 0
0.378761 0.595487 0
0.380208 0.550214 0
0.466523 0.368506 0
0.783675 0.0347525 0
0.75 0 0
0.595056 0.120002 0
0.20263 0.384402 0
0.183224 0.431359 0
0.214741 0.417484 0
0.084015 0.29788 0
0.109114 0.342258 0
0.122552 0.29764 0
0.370334 0.82512 0
0.387646 0.864998 0
0.406461 0.829835 0
0.355164 0.351116 0
0.345461 0.389393 0
0.38124 0.369312 0
0.177444 0.641792 0
0.157107 0.604507 0
0.0286115 0.437949 0
0.0286115 0.487949 0
0 0.45 0
0.184917 0.578051 0
0.216794 0.552094 0
0.310754 0.412615 0
0.268135 0.41228 0
0.13984 0.408422 0
0.159382 0.370147 0
0.128108 0.380293 0
0.784378 0.167398 0
0.797145 0.21454 0
0.649424 0.382815 0
0.693196 0.390508 0
0.682209 0.350082 0
0.471401 0.267911 0
0.482069 0.229507 0
0.600319 0.323089 0
0.597356 0.371644 0
0.370215 0.185901 0
0.420304 0.369225 0
0.410601 0.407502 0
0.5 0.65 0
0.293615 0.645334 0
0.325979 0.66246 0
0.342624 0.703635 0
0.356309 0.666965 0
0.24951 0.782974 0
0.289009 0.779588 0
0.810542 0.362514 0
0.76432 0.338993 0
0.772204 0.381296 0
0.70942 0.286852 0
0.705431 0.332443 0
0.729969 0.312184 0
0.831184 0.106754 0
0.88081 0.111511 0
0.700748 0.430301 0
0.733534 0.397568 0
0.850584 0.326758 0
0.229212 0.186988 0
0.407496 0.52144 0
0.369845 0.506468 0
0.413594 0.760165 0
0.405497 0.719256 0
0.381051 0.749049 0
0.444574 0.794979 0
0.383872 0.640216 0
0.400517 0.681391 0
0.355233 0.0967005 0
0.42608 0.078274 0
0.379662 0.102076 0
0.055907 0.589708 0
0.0873405 0.613876 0
0.072862 0.718619 0
0.0918955 0.751177 0
0.105798 0.716711 0
0.234794 0.74574 0
0.213514 0.780928 0
0.143437 0.712141 0
0.72332 0.190623 0
0.744653 0.160332 0
0.788301 0.105758 0
0.748577 0.0986915 0
0.769527 0.134944 0
0.357928 0.894445 0
0.318709 0.915359 0
0.0802555 0.874244 0
0.121571 0.864297 0
0.32234 0.494638 0
0.349629 0.465863 0
0.384335 0.442641 0
0.336831 0.43081 0
0.608343 0.412069 0
0.527752 0.244716 0
0.858468 0.369061 0
0.627123 0.221367 0
0.382188 0.284319 0
0.345561 0.3138 0
0.437163 0.330315 0
0.746731 0.229689 0
0.149179 0.573985 0
0.720027 0.100984 0
0.810234 0.070501 0
0.861213 0.415162 0
0.827831 0.478851 0
0.85 0.5 0
0.082894 0.447232 0
0.0883665 0.492719 0
0.0578625 0.514002 0
0.300642 0.749391 0
0.351723 0.729569 0
0.321394 0.725064 0
0.416449 0.301103 0
0.462668 0.300384 0
0.837044 0.431259 0
</DataArray>
</Points>
<Cells>
<DataArray  type="UInt32"  Name="connectivity"  format="ascii">
1 138 139 
14 137 139 
45 137 138 
137 138 139 
4 141 142 
27 140 142 
65 140 141 
140 141 142 
0 144 145 
23 143 145 
43 143 144 
143 144 145 
4 141 147 
65 141 146 
105 146 147 
141 146 147 
5 149 150 
31 148 150 
47 148 149 
148 149 150 
2 152 153 
32 151 153 
44 151 152 
151 152 153 
2 152 155 
15 154 155 
44 152 154 
152 154 155 
15 154 157 
44 154 156 
101 156 157 
154 156 157 
6 159 160 
43 158 160 
93 158 159 
158 159 160 
15 162 163 
16 161 163 
71 161 162 
161 162 163 
6 159 165 
7 164 165 
93 159 164 
159 164 165 
[...]
<PointData  Vectors="u"> 
<DataArray  type="Float32"  Name="u"  NumberOfComponents="3" format="ascii">
 0.000000e+00 0.000000e+00 0.000000e+00
 0.000000e+00 0.000000e+00 0.000000e+00
 0.000000e+00 0.000000e+00 0.000000e+00
 0.000000e+00 0.000000e+00 0.000000e+00
 0.000000e+00 0.000000e+00 0.000000e+00
 0.000000e+00 0.000000e+00 0.000000e+00
 0.000000e+00 0.000000e+00 0.000000e+00
 0.000000e+00 0.000000e+00 0.000000e+00
 0.000000e+00 0.000000e+00 0.000000e+00
 0.000000e+00 0.000000e+00 0.000000e+00
 0.000000e+00 0.000000e+00 0.000000e+00
 0.000000e+00 0.000000e+00 0.000000e+00
 0.000000e+00 0.000000e+00 0.000000e+00
 0.000000e+00 0.000000e+00 0.000000e+00
 0.000000e+00 0.000000e+00 0.000000e+00
 0.000000e+00 0.000000e+00 0.000000e+00
 0.000000e+00 0.000000e+00 0.000000e+00
 0.000000e+00 0.000000e+00 0.000000e+00
 0.000000e+00 0.000000e+00 0.000000e+00
 0.000000e+00 0.000000e+00 0.000000e+00
 0.000000e+00 0.000000e+00 0.000000e+00
 0.000000e+00 0.000000e+00 0.000000e+00
 0.000000e+00 0.000000e+00 0.000000e+00
 0.000000e+00 0.000000e+00 0.000000e+00
 0.000000e+00 0.000000e+00 0.000000e+00
 0.000000e+00 0.000000e+00 0.000000e+00
 0.000000e+00 0.000000e+00 0.000000e+00
 0.000000e+00 0.000000e+00 0.000000e+00
 0.000000e+00 0.000000e+00 0.000000e+00
 0.000000e+00 0.000000e+00 0.000000e+00
 0.000000e+00 0.000000e+00 0.000000e+00
 0.000000e+00 0.000000e+00 0.000000e+00
 6.971104e-04 -2.657008e-01 0.000000e+00
 1.375046e-03 -3.044879e-01 0.000000e+00
 1.420828e-03 -3.089215e-01 0.000000e+00
 7.945173e-04 -2.754555e-01 0.000000e+00
 2.699778e-01 -6.033785e-04 0.000000e+00
 3.063015e-01 -1.348141e-03 0.000000e+00
 3.073322e-01 -1.314911e-03 0.000000e+00
 2.709874e-01 -5.147934e-04 0.000000e+00
 1.494277e-01 -1.526992e-01 0.000000e+00
 2.908900e-02 -3.026073e-01 0.000000e+00
 3.085953e-01 -3.177019e-02 0.000000e+00
 1.153612e-02 -1.161069e-02 0.000000e+00
 2.720011e-04 -1.742842e-01 0.000000e+00
 2.227913e-01 -3.655879e-04 0.000000e+00
 1.760074e-01 -1.271614e-04 0.000000e+00
 6.635418e-04 -2.240231e-01 0.000000e+00
 6.268261e-02 -2.374110e-01 0.000000e+00
 2.973070e-01 -1.326262e-01 0.000000e+00
 3.080497e-01 -5.173950e-03 0.000000e+00
 9.060075e-03 -3.103049e-01 0.000000e+00
 7.325441e-02 -7.382831e-02 0.000000e+00
 1.745919e-01 -4.815171e-02 0.000000e+00
 2.549367e-01 -2.978344e-02 0.000000e+00
 8.151523e-03 -2.752513e-01 0.000000e+00
 2.950535e-03 -2.963028e-01 0.000000e+00
 8.995437e-02 -3.182296e-01 0.000000e+00
 5.315625e-02 -1.638988e-01 0.000000e+00
 2.805486e-01 -7.314914e-03 0.000000e+00
 3.060783e-01 -8.639448e-03 0.000000e+00
 1.884656e-02 -2.518053e-01 0.000000e+00
 1.710838e-02 -3.070264e-01 0.000000e+00
 2.971251e-01 -1.816312e-03 0.000000e+00
 3.041432e-01 -1.995139e-03 0.000000e+00
 3.247399e-01 -6.863170e-02 0.000000e+00
 1.045172e-01 -3.009918e-02 0.000000e+00
 2.386537e-01 -6.597578e-02 0.000000e+00
 1.900916e-03 -2.493933e-01 0.000000e+00
 8.471933e-03 -3.058290e-01 0.000000e+00
 2.225805e-02 -4.550782e-02 0.000000e+00
 2.427164e-03 -2.434909e-01 0.000000e+00
 1.933578e-01 -8.655082e-03 0.000000e+00
 1.947542e-01 -2.494294e-01 0.000000e+00
 2.492373e-01 -9.532198e-03 0.000000e+00
 1.915402e-01 -1.991570e-02 0.000000e+00
 2.969658e-02 -1.845195e-01 0.000000e+00
 3.683433e-03 -3.092152e-01 0.000000e+00
 5.979886e-02 -2.891005e-01 0.000000e+00
 2.695154e-02 -2.257424e-01 0.000000e+00
 9.953317e-02 -1.960210e-01 0.000000e+00
 3.000650e-02 -1.017501e-01 0.000000e+00
 3.214193e-01 -2.856157e-02 0.000000e+00
 2.840846e-01 -5.283220e-02 0.000000e+00
 1.959345e-01 -1.074795e-01 0.000000e+00
 4.171914e-02 -3.198165e-01 0.000000e+00
 1.614409e-02 -3.091164e-01 0.000000e+00
 3.105750e-01 -1.325611e-02 0.000000e+00
 3.085034e-01 -2.157479e-03 0.000000e+00
 2.330113e-01 -8.893074e-04 0.000000e+00
 2.693281e-01 -1.438543e-03 0.000000e+00
 1.341867e-01 -9.065862e-02 0.000000e+00
 5.655667e-02 -3.184361e-01 0.000000e+00
 4.616264e-02 -2.301437e-02 0.000000e+00
 6.911032e-03 -2.903662e-01 0.000000e+00
 1.541193e-02 -2.689058e-01 0.000000e+00
 1.194771e-01 -1.384854e-02 0.000000e+00
 7.419628e-03 -2.364891e-01 0.000000e+00
 1.816257e-02 -2.833453e-01 0.000000e+00
 2.914278e-01 -4.217424e-03 0.000000e+00
 1.951004e-03 -2.982010e-01 0.000000e+00
 9.646910e-04 -2.390265e-01 0.000000e+00
 6.925591e-03 -2.933120e-01 0.000000e+00
 1.196881e-01 -2.648349e-01 0.000000e+00
 8.937426e-02 -1.330802e-01 0.000000e+00
 2.836554e-01 -2.296099e-01 0.000000e+00
 2.583750e-01 -5.511150e-03 0.000000e+00
 3.154999e-01 -6.818080e-02 0.000000e+00
 3.086087e-01 -5.522554e-03 0.000000e+00
 2.853703e-01 -2.804190e-02 0.000000e+00
 2.216680e-01 -1.748837e-01 0.000000e+00
 2.964683e-01 -1.678602e-02 0.000000e+00
 1.677540e-02 -1.237257e-01 0.000000e+00
 2.240436e-01 -1.008135e-03 0.000000e+00
 4.013212e-02 -2.622431e-01 0.000000e+00
 2.304753e-01 -3.572984e-03 0.000000e+00
 3.272904e-02 -2.818423e-01 0.000000e+00
 6.077302e-02 -1.992415e-01 0.000000e+00
 2.652362e-03 -2.005693e-01 0.000000e+00
 2.409791e-01 -3.944678e-04 0.000000e+00
 5.620065e-03 -2.353668e-01 0.000000e+00
 9.327873e-03 -1.516697e-01 0.000000e+00
 7.560552e-03 -1.723862e-01 0.000000e+00
 1.448422e-02 -3.114930e-01 0.000000e+00
 2.351967e-02 -3.134959e-01 0.000000e+00
 3.157599e-01 -1.973753e-02 0.000000e+00
 4.662499e-03 -1.759626e-01 0.000000e+00
 1.410283e-02 -2.988714e-01 0.000000e+00
 1.503045e-01 -1.675902e-02 0.000000e+00
 4.700952e-03 -3.037478e-01 0.000000e+00
 1.653526e-01 -3.209558e-01 0.000000e+00
 1.579084e-01 -2.096589e-01 0.000000e+00
 2.267317e-01 -1.948557e-03 0.000000e+00
 2.480969e-01 -1.146971e-01 0.000000e+00
 3.018490e-01 -9.249166e-03 0.000000e+00
 1.731310e-01 -1.121039e-04 0.000000e+00
 2.789774e-01 -8.780464e-02 0.000000e+00
 1.417139e-01 -1.084462e-04 0.000000e+00
 1.421213e-01 -1.013084e-04 0.000000e+00
 0.000000e+00 0.000000e+00 0.000000e+00
 2.249603e-01 -1.849693e-02 0.000000e+00
 2.734309e-01 -1.071102e-01 0.000000e+00
 0.000000e+00 0.000000e+00 0.000000e+00
 4.378408e-03 -1.000604e-02 0.000000e+00
 2.019331e-03 -1.996945e-03 0.000000e+00
 0.000000e+00 0.000000e+00 0.000000e+00
 3.283164e-01 -1.558821e-01 0.000000e+00
 2.688449e-01 -2.475617e-01 0.000000e+00
 2.916661e-04 -1.416062e-01 0.000000e+00
 2.227925e-04 -1.412175e-01 0.000000e+00
 0.000000e+00 0.000000e+00 0.000000e+00
 4.656645e-04 -2.314404e-01 0.000000e+00
 1.091591e-04 -1.038641e-01 0.000000e+00
 2.771549e-04 -1.886656e-01 0.000000e+00
 1.385816e-04 -1.032994e-01 0.000000e+00
 0.000000e+00 0.000000e+00 0.000000e+00
 5.365034e-04 -2.115036e-01 0.000000e+00
 3.883352e-04 -1.588262e-01 0.000000e+00
 2.679544e-02 -1.795564e-02 0.000000e+00
 2.345666e-02 -7.332975e-03 0.000000e+00
 1.020162e-02 -4.527760e-03 0.000000e+00
 9.372755e-04 -1.623011e-01 0.000000e+00
 6.288280e-04 -1.638224e-01 0.000000e+00
 0.000000e+00 0.000000e+00 0.000000e+00
 3.911970e-02 -7.951821e-03 0.000000e+00
 0.000000e+00 0.000000e+00 0.000000e+00
 0.000000e+00 0.000000e+00 0.000000e+00
 1.163990e-01 -2.144616e-02 0.000000e+00
 7.062778e-02 -4.795254e-03 0.000000e+00
 8.049111e-02 -9.886206e-03 0.000000e+00
 2.652638e-03 -2.243425e-01 0.000000e+00
 7.629103e-04 -1.256841e-01 0.000000e+00
 1.097707e-03 -1.231987e-01 0.000000e+00
 0.000000e+00 0.000000e+00 0.000000e+00
 3.596382e-02 -3.640195e-02 0.000000e+00
 1.753242e-02 -2.669105e-02 0.000000e+00
 6.301726e-02 -1.018318e-02 0.000000e+00
 0.000000e+00 0.000000e+00 0.000000e+00
 8.205940e-02 -4.354432e-03 0.000000e+00
 0.000000e+00 0.000000e+00 0.000000e+00
 1.365455e-01 -6.038769e-03 0.000000e+00
 1.240256e-01 -7.029984e-03 0.000000e+00
 0.000000e+00 0.000000e+00 0.000000e+00
 2.224009e-01 -4.159457e-02 0.000000e+00
 1.887513e-01 -3.314010e-02 0.000000e+00
 2.072391e-01 -5.897139e-02 0.000000e+00
 1.280267e-01 -2.358204e-03 0.000000e+00
 1.209818e-01 -3.170579e-03 0.000000e+00
 0.000000e+00 0.000000e+00 0.000000e+00
 2.245528e-01 -9.624364e-03 0.000000e+00
 1.736818e-01 -3.452310e-03 0.000000e+00
 2.128540e-01 -2.177538e-04 0.000000e+00
 1.584496e-01 -6.490405e-05 0.000000e+00
 1.042229e-01 -2.306797e-05 0.000000e+00
 6.225057e-03 -2.099139e-01 0.000000e+00
 1.322040e-03 -1.099961e-01 0.000000e+00
 2.421173e-03 -1.611907e-01 0.000000e+00
 1.677594e-03 -1.056900e-01 0.000000e+00
 0.000000e+00 0.000000e+00 0.000000e+00
 1.271024e-01 -2.030814e-01 0.000000e+00
 1.550163e-01 -1.801201e-01 0.000000e+00
 1.246625e-01 -1.762977e-01 0.000000e+00
 2.065825e-02 -2.277274e-01 0.000000e+00
 7.124612e-02 -2.714602e-01 0.000000e+00
 0.000000e+00 0.000000e+00 0.000000e+00
 2.895304e-02 -2.923297e-01 0.000000e+00
 8.086442e-03 -1.866224e-01 0.000000e+00
 9.170059e-03 -2.511131e-01 0.000000e+00
 2.366522e-03 -1.508654e-01 0.000000e+00
 4.316203e-03 -1.738151e-01 0.000000e+00
 1.512861e-03 -1.468528e-01 0.000000e+00
 0.000000e+00 0.000000e+00 0.000000e+00
 1.774537e-03 -3.013712e-01 0.000000e+00
 1.301714e-03 -2.860257e-01 0.000000e+00
 1.087715e-03 -2.942806e-01 0.000000e+00
 2.119599e-01 -2.494168e-04 0.000000e+00
 1.017925e-01 1.011801e-05 0.000000e+00
 2.356573e-01 -3.113339e-04 0.000000e+00
 1.042908e-01 -5.763809e-05 0.000000e+00
 1.923104e-01 -2.024945e-04 0.000000e+00
 2.420687e-01 -6.011653e-03 0.000000e+00
 1.530647e-01 -1.134748e-03 0.000000e+00
 1.785122e-01 -2.434760e-03 0.000000e+00
 2.503793e-01 -1.301438e-03 0.000000e+00
 1.393556e-01 -2.106248e-05 0.000000e+00
 1.879753e-01 -2.207023e-04 0.000000e+00
 2.288636e-01 -2.660871e-03 0.000000e+00
 1.454247e-01 -8.163655e-04 0.000000e+00
 0.000000e+00 0.000000e+00 0.000000e+00
 1.400910e-01 -1.829342e-05 0.000000e+00
 0.000000e+00 0.000000e+00 0.000000e+00
 2.732460e-03 -1.025472e-01 0.000000e+00
 2.248373e-03 -1.090981e-01 0.000000e+00
 0.000000e+00 0.000000e+00 0.000000e+00
 1.599936e-02 -2.084029e-01 0.000000e+00
 1.355798e-02 -2.208365e-01 0.000000e+00
 2.288049e-02 -2.400272e-01 0.000000e+00
 5.559710e-04 -1.641306e-01 0.000000e+00
 1.001388e-03 -1.661101e-01 0.000000e+00
 0.000000e+00 0.000000e+00 0.000000e+00
 2.338348e-02 -1.553220e-01 0.000000e+00
 5.419409e-03 -8.556068e-02 0.000000e+00
 1.008407e-02 -1.278566e-01 0.000000e+00
 3.056964e-01 -2.171871e-03 0.000000e+00
 3.077240e-01 -1.610665e-03 0.000000e+00
 3.030949e-01 -1.476101e-03 0.000000e+00
 1.695417e-01 -7.638664e-04 0.000000e+00
 1.638769e-01 -2.699034e-04 0.000000e+00
 0.000000e+00 0.000000e+00 0.000000e+00
 5.671984e-03 -7.316393e-02 0.000000e+00
 0.000000e+00 0.000000e+00 0.000000e+00
 9.898948e-03 -6.054190e-02 0.000000e+00
 9.656213e-03 -7.703144e-02 0.000000e+00
 0.000000e+00 0.000000e+00 0.000000e+00
 1.987811e-03 -3.092390e-01 0.000000e+00
 2.015893e-03 -3.076042e-01 0.000000e+00
 1.492051e-03 -3.084612e-01 0.000000e+00
 1.122934e-03 -2.890232e-01 0.000000e+00
 1.542178e-03 -3.061180e-01 0.000000e+00
 1.170484e-03 -3.023339e-01 0.000000e+00
 2.503838e-01 -4.842654e-04 0.000000e+00
 1.926722e-01 -2.236774e-04 0.000000e+00
 1.518599e-01 -1.878887e-04 0.000000e+00
 1.512599e-01 -3.196917e-04 0.000000e+00
 0.000000e+00 0.000000e+00 0.000000e+00
 3.053601e-01 -1.598173e-02 0.000000e+00
 3.021008e-01 -2.373323e-02 0.000000e+00
 3.104592e-01 -2.076984e-02 0.000000e+00
 3.085815e-01 -1.590799e-03 0.000000e+00
 3.085766e-01 -1.451168e-03 0.000000e+00
 1.290993e-03 -2.751033e-01 0.000000e+00
 7.061934e-04 -2.543733e-01 0.000000e+00
 3.667149e-04 -1.966126e-01 0.000000e+00
 1.643213e-01 -1.000414e-01 0.000000e+00
 1.423181e-01 -1.206028e-01 0.000000e+00
 1.743190e-01 -1.311109e-01 0.000000e+00
 1.123814e-01 -1.128416e-01 0.000000e+00
 1.182857e-01 -1.432611e-01 0.000000e+00
 4.463956e-02 -2.854416e-01 0.000000e+00
 3.183739e-02 -2.933925e-01 0.000000e+00
 4.235228e-02 -2.981930e-01 0.000000e+00
 2.758256e-01 -1.007941e-03 0.000000e+00
 2.875653e-01 -9.812441e-04 0.000000e+00
 3.185528e-01 -2.379526e-02 0.000000e+00
 3.138741e-01 -2.602200e-02 0.000000e+00
 3.177732e-01 -3.233150e-02 0.000000e+00
 2.933819e-01 -9.589165e-04 0.000000e+00
 3.060118e-01 -1.496045e-03 0.000000e+00
 2.991207e-01 -9.633764e-04 0.000000e+00
 1.971526e-02 -3.111940e-01 0.000000e+00
 2.713272e-02 -3.096226e-01 0.000000e+00
 2.194928e-02 -3.068531e-01 0.000000e+00
 2.125942e-03 -2.817827e-01 0.000000e+00
 1.121233e-03 -2.373497e-01 0.000000e+00
 2.994101e-01 -8.084655e-02 0.000000e+00
 2.880739e-01 -1.080840e-01 0.000000e+00
 3.111438e-01 -9.717124e-02 0.000000e+00
 7.016750e-03 -2.278825e-02 0.000000e+00
 7.459742e-03 -3.739320e-02 0.000000e+00
 0.000000e+00 0.000000e+00 0.000000e+00
 2.975506e-01 -1.025456e-03 0.000000e+00
 5.845053e-02 -1.215614e-01 0.000000e+00
 8.180478e-02 -1.029963e-01 0.000000e+00
 5.127971e-02 -9.215225e-02 0.000000e+00
 2.990619e-01 -6.188261e-02 0.000000e+00
 3.121720e-01 -4.647568e-02 0.000000e+00
 2.992768e-01 -4.292868e-02 0.000000e+00
 2.635086e-01 -6.133883e-02 0.000000e+00
 2.701716e-01 -4.169196e-02 0.000000e+00
 2.495930e-01 -4.595902e-02 0.000000e+00
 1.878762e-03 -2.789698e-01 0.000000e+00
 7.532995e-04 -2.539989e-01 0.000000e+00
 4.436045e-03 -3.090053e-01 0.000000e+00
 6.703968e-03 -3.084134e-01 0.000000e+00
 6.061477e-03 -3.097484e-01 0.000000e+00
 1.641138e-02 -2.923679e-01 0.000000e+00
 2.045792e-02 -3.007138e-01 0.000000e+00
 2.398089e-02 -2.940100e-01 0.000000e+00
 2.904982e-02 -2.062439e-01 0.000000e+00
 4.302144e-02 -2.348988e-01 0.000000e+00
 4.659220e-02 -2.143592e-01 0.000000e+00
 8.628667e-02 -2.810037e-01 0.000000e+00
 8.883120e-02 -2.497841e-01 0.000000e+00
 6.472111e-02 -2.649125e-01 0.000000e+00
 2.300273e-01 -2.894765e-01 0.000000e+00
 1.764642e-01 -3.168172e-01 0.000000e+00
 2.283110e-01 -5.515978e-04 0.000000e+00
 0.000000e+00 0.000000e+00 0.000000e+00
 2.874333e-01 -1.147902e-03 0.000000e+00
 2.579250e-01 -4.179269e-04 0.000000e+00
 2.946813e-01 -2.764445e-03 0.000000e+00
 3.032097e-01 -5.182974e-03 0.000000e+00
 3.047476e-01 -3.311472e-03 0.000000e+00
 3.422924e-02 -2.462049e-01 0.000000e+00
 5.078446e-02 -2.516543e-01 0.000000e+00
 1.005619e-02 -2.967319e-01 0.000000e+00
 1.131275e-02 -2.904364e-01 0.000000e+00
 7.687324e-03 -2.857478e-01 0.000000e+00
 5.415946e-02 -3.091053e-01 0.000000e+00
 6.201953e-02 -3.216524e-01 0.000000e+00
 7.464320e-02 -3.024138e-01 0.000000e+00
 3.084532e-01 -2.273200e-03 0.000000e+00
 3.083456e-01 -3.339370e-03 0.000000e+00
 3.090328e-01 -3.575330e-03 0.000000e+00
 2.804425e-01 -1.430725e-02 0.000000e+00
 2.905781e-01 -1.160832e-02 0.000000e+00
 2.673615e-01 -8.622617e-03 0.000000e+00
 3.110743e-01 -8.929884e-03 0.000000e+00
 3.097135e-01 -5.753492e-03 0.000000e+00
 3.090019e-01 -8.300634e-03 0.000000e+00
 2.216124e-01 -1.127295e-01 0.000000e+00
 2.434413e-01 -8.858994e-02 0.000000e+00
 2.196955e-01 -8.672792e-02 0.000000e+00
 3.314680e-01 -7.543894e-02 0.000000e+00
 3.293621e-01 -1.170911e-01 0.000000e+00
 1.234960e-01 -5.916909e-02 0.000000e+00
 1.569272e-01 -6.912615e-02 0.000000e+00
 1.399333e-01 -3.987317e-02 0.000000e+00
 1.349967e-01 -1.545332e-02 0.000000e+00
 1.007534e-01 -5.382971e-03 0.000000e+00
 9.580102e-02 -1.640241e-01 0.000000e+00
 7.081231e-02 -1.505446e-01 0.000000e+00
 7.575276e-02 -1.804653e-01 0.000000e+00
 2.852716e-01 -3.894302e-02 0.000000e+00
 2.717849e-01 -2.982667e-02 0.000000e+00
 5.878060e-03 -3.081423e-01 0.000000e+00
 9.133449e-03 -3.091321e-01 0.000000e+00
 1.067745e-02 -3.055227e-01 0.000000e+00
 1.157015e-02 -3.108564e-01 0.000000e+00
 8.615758e-03 -3.067009e-01 0.000000e+00
 1.271109e-02 -2.674541e-01 0.000000e+00
 1.909231e-02 -2.699001e-01 0.000000e+00
 1.228116e-02 -2.474744e-01 0.000000e+00
 3.594650e-03 -3.057284e-01 0.000000e+00
 7.430423e-02 -2.703258e-02 0.000000e+00
 6.192405e-02 -4.707072e-02 0.000000e+00
 9.295355e-02 -5.197266e-02 0.000000e+00
 2.641531e-02 -7.266544e-02 0.000000e+00
 4.616583e-02 -6.204147e-02 0.000000e+00
 4.586571e-03 -2.776369e-01 0.000000e+00
 4.740147e-03 -2.635522e-01 0.000000e+00
 7.947469e-03 -3.010998e-01 0.000000e+00
 4.706304e-03 -2.950679e-01 0.000000e+00
 5.320074e-03 -3.024467e-01 0.000000e+00
 2.918003e-01 -2.197176e-02 0.000000e+00
 2.736321e-01 -1.806423e-02 0.000000e+00
 1.958002e-01 -1.365408e-02 0.000000e+00
 2.272611e-01 -2.636137e-02 0.000000e+00
 2.343525e-01 -1.842852e-02 0.000000e+00
 4.987214e-02 -3.250747e-01 0.000000e+00
 8.068622e-02 -3.318051e-01 0.000000e+00
 2.983257e-01 -1.758137e-01 0.000000e+00
 1.473627e-01 -4.712809e-04 0.000000e+00
 0.000000e+00 0.000000e+00 0.000000e+00
 2.566335e-01 -1.785272e-02 0.000000e+00
 7.898040e-02 -1.987614e-01 0.000000e+00
 6.243471e-02 -2.185157e-01 0.000000e+00
 8.125381e-02 -2.194124e-01 0.000000e+00
 2.304001e-02 -1.156787e-01 0.000000e+00
 3.362247e-02 -1.502069e-01 0.000000e+00
 4.200407e-02 -1.335604e-01 0.000000e+00
 5.887588e-03 -2.986315e-01 0.000000e+00
 3.371764e-03 -2.875108e-01 0.000000e+00
 3.784598e-03 -2.728611e-01 0.000000e+00
 1.899228e-01 -1.956278e-01 0.000000e+00
 1.760040e-01 -2.285946e-01 0.000000e+00
 2.133928e-01 -2.120097e-01 0.000000e+00
 2.465235e-02 -2.832653e-01 0.000000e+00
 2.615461e-02 -2.697954e-01 0.000000e+00
 3.533404e-03 -8.639399e-02 0.000000e+00
 3.001501e-03 -9.475837e-02 0.000000e+00
 0.000000e+00 0.000000e+00 0.000000e+00
 3.670012e-02 -2.729125e-01 0.000000e+00
 5.049723e-02 -2.753274e-01 0.000000e+00
 1.410649e-01 -2.394196e-01 0.000000e+00
 1.123853e-01 -2.286178e-01 0.000000e+00
 4.475481e-02 -1.948206e-01 0.000000e+00
 5.754385e-02 -1.819147e-01 0.000000e+00
 4.084828e-02 -1.768438e-01 0.000000e+00
 2.979407e-01 -6.446478e-03 0.000000e+00
 3.058924e-01 -7.085963e-03 0.000000e+00
 3.065447e-01 -1.677962e-02 0.000000e+00
 2.923590e-01 -7.806184e-03 0.000000e+00
 3.135928e-01 -1.561709e-02 0.000000e+00
 2.650015e-01 -1.018324e-01 0.000000e+00
 2.579921e-01 -7.802153e-02 0.000000e+00
 3.238650e-01 -4.768220e-02 0.000000e+00
 3.259716e-01 -4.280404e-02 0.000000e+00
 1.867714e-01 -7.624583e-02 0.000000e+00
 2.530463e-01 -2.041019e-01 0.000000e+00
 2.363619e-01 -2.496239e-01 0.000000e+00
 0.000000e+00 0.000000e+00 0.000000e+00
 3.634002e-02 -3.110790e-01 0.000000e+00
 3.101479e-02 -3.160590e-01 0.000000e+00
 2.100205e-02 -3.136686e-01 0.000000e+00
 2.732396e-02 -3.161166e-01 0.000000e+00
 1.192969e-02 -3.074025e-01 0.000000e+00
 1.234402e-02 -3.104479e-01 0.000000e+00
 2.985264e-01 -3.369077e-03 0.000000e+00
 3.078213e-01 -6.988070e-03 0.000000e+00
 2.910157e-01 -3.708081e-03 0.000000e+00
 3.129915e-01 -1.621664e-02 0.000000e+00
 3.137045e-01 -1.381429e-02 0.000000e+00
 3.127549e-01 -1.208235e-02 0.000000e+00
 2.727735e-01 -2.241533e-03 0.000000e+00
 2.776569e-01 -1.499471e-03 0.000000e+00
 2.404492e-01 -2.231751e-03 0.000000e+00
 2.812690e-01 -4.095872e-03 0.000000e+00
 3.062693e-01 -3.278925e-03 0.000000e+00
 1.031544e-01 -8.293849e-02 0.000000e+00
 1.107734e-01 -3.370945e-01 0.000000e+00
 1.206800e-01 -3.231829e-01 0.000000e+00
 6.671913e-03 -2.702755e-01 0.000000e+00
 1.115834e-02 -2.844003e-01 0.000000e+00
 1.102109e-02 -2.988549e-01 0.000000e+00
 2.608076e-03 -2.150720e-01 0.000000e+00
 3.038899e-02 -3.140272e-01 0.000000e+00
 1.735442e-02 -2.953660e-01 0.000000e+00
 1.536939e-01 -2.981435e-02 0.000000e+00
 1.710961e-01 -1.856355e-02 0.000000e+00
 1.687157e-01 -3.110712e-02 0.000000e+00
 6.036285e-03 -1.750940e-01 0.000000e+00
 1.084788e-02 -2.259623e-01 0.000000e+00
 4.587831e-03 -2.217218e-01 0.000000e+00
 5.269858e-03 -2.491679e-01 0.000000e+00
 8.134510e-03 -2.590333e-01 0.000000e+00
 1.562902e-02 -3.047079e-01 0.000000e+00
 1.119754e-02 -3.030279e-01 0.000000e+00
 1.242854e-02 -2.808593e-01 0.000000e+00
 2.996343e-01 -1.254390e-02 0.000000e+00
 2.940306e-01 -8.703827e-03 0.000000e+00
 2.701615e-01 -3.296657e-03 0.000000e+00
 2.618953e-01 -4.186288e-03 0.000000e+00
 2.866442e-01 -5.615527e-03 0.000000e+00
 3.099536e-03 -3.010611e-01 0.000000e+00
 2.871186e-03 -3.081471e-01 0.000000e+00
 1.556648e-03 -2.416123e-01 0.000000e+00
 3.050903e-03 -2.795836e-01 0.000000e+00
 1.097837e-01 -2.955558e-01 0.000000e+00
 1.438214e-01 -2.924023e-01 0.000000e+00
 1.877322e-01 -2.864302e-01 0.000000e+00
 1.546478e-01 -2.613163e-01 0.000000e+00
 2.916033e-01 -2.240275e-02 0.000000e+00
 2.823392e-01 -6.873328e-02 0.000000e+00
 2.939277e-01 -1.948748e-03 0.000000e+00
 2.976817e-01 -3.147802e-02 0.000000e+00