<?xml version="1.0"?>
<VTKFile type="UnstructuredGrid"  version="0.1"  >
<UnstructuredGrid>
<Piece  NumberOfPoints="505" NumberOfCells="928">
<Points>
<DataArray  type="Float32"  NumberOfComponents="3"  format="ascii">
0 0 0
1 0 0
0 1 0
1 0.5 0
0.5 0.5 0
0.5 1 0
0.1 0 0
0.2 0 0
0.3 0 0
0.4 0 0
0.5 0 0
0.6 0 0
0.7 0 0
0.8 0 0
0.9 0 0
0 0.9 0
0 0.8 0
0 0.7 0
0 0.6 0
0 0.5 0
0 0.4 0
0 0.3 0
0 0.2 0
0 0.1 0
0.9 0.5 0
0.8 0.5 0
0.7 0.5 0
0.6 0.5 0
0.5 0.6 0
0.5 0.7 0
0.5 0.8 0
0.5 0.9 0
0.1 1 0
0.2 1 0
0.3 1 0
0.4 1 0
1 0.1 0
1 0.2 0
1 0.3 0
1 0.4 0
0.300178 0.296564 0
0.247566 0.664879 0
0.639694 0.259804 0
0.06564 0.06472 0
0.04439 0.954144 0
0.932418 0.064715 0
0.951013 0.456419 0
0.437622 0.939659 0
0.195334 0.464441 0
0.483382 0.329596 0
0.834786 0.236295 0
0.307228 0.81139 0
0.178229 0.173372 0
0.366998 0.134199 0
0.547485 0.14214 0
0.124832 0.74927 0
0.160163 0.896658 0
0.342556 0.535243 0
0.147651 0.342018 0
0.729803 0.127878 0
0.725981 0.357775 0
0.121369 0.600441 0
0.372954 0.70814 0
0.908503 0.151525 0
0.89851 0.333305 0
0.556275 0.400898 0
0.259184 0.092178 0
0.46329 0.194362 0
0.423773 0.869712 0
0.22823 0.818162 0
0.081292 0.144905 0
0.082979 0.831935 0
0.549999 0.065419 0
0.371537 0.407588 0
0.642628 0.097865 0
0.459835 0.086595 0
0.108565 0.418567 0
0.273082 0.902112 0
0.256598 0.556659 0
0.11951 0.509541 0
0.234147 0.370527 0
0.097453 0.253261 0
0.638438 0.342389 0
0.554656 0.224779 0
0.373432 0.237603 0
0.339663 0.62579 0
0.27079 0.747786 0
0.733958 0.266592 0
0.928527 0.244458 0
0.853116 0.071497 0
0.818426 0.404817 0
0.280194 0.200604 0
0.417859 0.565185 0
0.147241 0.079056 0
0.389149 0.789957 0
0.42808 0.654642 0
0.343469 0.059202 0
0.086765 0.684153 0
0.162043 0.675011 0
0.809252 0.14201 0
0.364337 0.928607 0
0.077532 0.916553 0
0.159064 0.807906 0
0.302124 0.454032 0
0.205909 0.272176 0
0.449664 0.407415 0
0.66041 0.423241 0
0.562201 0.303789 0
0.802658 0.320211 0
0.614551 0.182931 0
0.390944 0.331035 0
0.687136 0.18846 0
0.070577 0.342498 0
0.741087 0.437361 0
0.176989 0.547528 0
0.710251 0.07409 0
0.192845 0.608574 0
0.171114 0.398277 0
0.058959 0.753084 0
0.904 0.425508 0
0.438039 0.730373 0
0.057223 0.475897 0
0.058502 0.552106 0
0.330493 0.750997 0
0.312295 0.699131 0
0.684882 0.307111 0
0.053312 0.627311 0
0.198798 0.743695 0
0.392326 0.069953 0
0.351519 0.860283 0
0.397134 0.477694 0
0.319385 0.371198 0
0.767351 0.069505 0
0.441954 0.271171 0
0.759504 0.192785 0
0.855661 0.457701 0
0.500847 0.264652 0
0.916209 0.0323575 0
0.966209 0.0323575 0
0.95 0 0
0.578137 0.450449 0
0.528137 0.450449 0
0.55 0.5 0
0.03282 0.08236 0
0.03282 0.03236 0
0 0.05 0
0.502969 0.404157 0
0.474832 0.453708 0
0.468811 0.91983 0
0.468811 0.96983 0
0.5 0.95 0
0.072195 0.977072 0
0.022195 0.977072 0
0.05 1 0
0.022195 0.927072 0
0 0.95 0
0.060961 0.935348 0
0.038766 0.908276 0
0.106441 0.071888 0
0.123621 0.039528 0
0.08282 0.03236 0
0.0414895 0.815967 0
0.0414895 0.865968 0
0 0.85 0
0.173621 0.039528 0
0.15 0 0
0.05 0 0
0.301327 0.07569 0
0.321735 0.029601 0
0.279592 0.046089 0
0.070969 0.792509 0
0.0294795 0.776542 0
0.0294795 0.726542 0
0 0.75 0
0.114267 0.111981 0
0.073466 0.104813 0
0.229592 0.046089 0
0.25 0 0
0.371735 0.029601 0
0.35 0 0
0.479917 0.0432975 0
0.429918 0.0432975 0
0.45 0 0
0.461562 0.140479 0
0.413416 0.110397 0
0.415144 0.16428 0
0.574999 0.0327095 0
0.525 0.0327095 0
0.55 0 0
0.596313 0.081642 0
0.621314 0.0489325 0
0.927507 0.440964 0
0.902 0.462754 0
0.925507 0.47821 0
0.0700385 0.655732 0
0.026656 0.663655 0
0.0433825 0.692076 0
0.026656 0.613655 0
0 0.65 0
0.276766 0.370862 0
0.309781 0.333881 0
0.267162 0.333545 0
0.458929 0.582593 0
0.458929 0.532593 0
0.5 0.55 0
0.422969 0.609913 0
0.46404 0.627321 0
0.43306 0.692508 0
0.46902 0.715186 0
0.46404 0.677321 0
0.46902 0.765186 0
0.5 0.75 0
0.180082 0.948329 0
0.130082 0.948329 0
0.15 1 0
0.87983 0.441605 0
0.87783 0.478851 0
0.975507 0.42821 0
0.975507 0.47821 0
1 0.45 0
0.676439 0.0859775 0
0.705125 0.037045 0
0.671314 0.0489325 0
0.779756 0.421089 0
0.770544 0.46868 0
0.809213 0.452408 0
0.738801 0.0717975 0
0.733675 0.0347525 0
0.95 0.5 0
0.720544 0.46868 0
0.75 0.5 0
0.029251 0.526053 0
0.029251 0.576053 0
0 0.55 0
0.089006 0.530824 0
0.0899355 0.576273 0
0.12044 0.554991 0
0.461886 0.884856 0
0.461886 0.834856 0
0.5 0.85 0
0.089571 0.380533 0
0.0352885 0.371249 0
0.0542825 0.409284 0
0.918515 0.197991 0
0.964263 0.222229 0
0.954252 0.175762 0
0.630205 0.46162 0
0.680205 0.46162 0
0.65 0.5 0
0.0352885 0.321249 0
0 0.35 0
0.0487265 0.226631 0
0.0487265 0.276631 0
0 0.25 0
0.286541 0.951056 0
0.236541 0.951056 0
0.25 1 0
0.382169 0.964303 0
0.332168 0.964303 0
0.35 1 0
0.966209 0.0823575 0
1 0.05 0
0.876558 0.0357485 0
0.826558 0.0357485 0
0.85 0 0
0.710547 0.227526 0
0.663415 0.224132 0
0.686826 0.263198 0
0.964263 0.272229 0
1 0.25 0
0.40098 0.934133 0
0.418811 0.96983 0
0.45 1 0
0.326813 0.219104 0
0.290186 0.248584 0
0.336805 0.267084 0
0.243052 0.23639 0
0.253043 0.28437 0
0.224721 0.582616 0
0.220205 0.636726 0
0.252082 0.610769 0
0.92046 0.10812 0
0.954252 0.125762 0
0.66166 0.32475 0
0.662288 0.283458 0
0.639066 0.301096 0
0.949255 0.366653 0
0.949255 0.316653 0
1 0.35 0
0.291542 0.723459 0
0.27993 0.682005 0
0.259178 0.706333 0
0.394055 0.89916 0
0.430698 0.904686 0
0.531524 0.28422 0
0.492115 0.297124 0
0.522791 0.316692 0
0.040646 0.122453 0
0.040646 0.172453 0
0 0.15 0
1 0.15 0
0.151681 0.262718 0
0.192069 0.222774 0
0.137841 0.213317 0
0.558428 0.264284 0
0.600947 0.281797 0
0.597175 0.242291 0
0.508973 0.20957 0
0.551071 0.183459 0
0.505387 0.168251 0
0.118847 0.906605 0
0.088766 0.958276 0
0.3123 0.881198 0
0.329373 0.835836 0
0.290155 0.856751 0
0.18042 0.709353 0
0.223182 0.704287 0
0.204805 0.669945 0
0.114037 0.464054 0
0.157422 0.486991 0
0.15195 0.441504 0
0.279361 0.505346 0
0.248729 0.459236 0
0.225966 0.51055 0
0.423399 0.442555 0
0.448567 0.488847 0
0.892767 0.068106 0
0.65 0 0
0.901255 0.379406 0
0.952 0.412754 0
0.858877 0.146767 0
0.822019 0.189153 0
0.871644 0.19391 0
0.14825 0.528535 0
0.186162 0.505985 0
0.178931 0.775801 0
0.161815 0.746482 0
0.141948 0.778588 0
0.29813 0.591225 0
0.34111 0.580516 0
0.299577 0.545951 0
0.913519 0.288882 0
0.881657 0.240376 0
0.866648 0.2848 0
0.664882 0.143162 0
0.708469 0.158169 0
0.686215 0.112871 0
0.768308 0.293401 0
0.818722 0.278253 0
0.784372 0.251443 0
0.407693 0.254387 0
0.452622 0.232766 0
0.418361 0.215983 0
0.559238 0.352343 0
0.519829 0.365247 0
0.269689 0.146391 0
0.323596 0.167402 0
0.313091 0.113188 0
0.367897 0.0645775 0
0.396163 0.0349765 0
0.220028 0.321352 0
0.17678 0.307097 0
0.190899 0.356272 0
0.584604 0.203855 0
0.581018 0.162535 0
0.250656 0.860137 0
0.267729 0.814776 0
0.359821 0.770477 0
0.31886 0.781193 0
0.348189 0.800674 0
0.124404 0.679582 0
0.141706 0.637726 0
0.104067 0.642297 0
0.216622 0.899385 0
0.203213 0.085617 0
0.162735 0.126214 0
0.218707 0.132775 0
0.0893725 0.199083 0
0.129761 0.159139 0
0.121022 0.819921 0
0.103905 0.790602 0
0.193647 0.813034 0
0.159614 0.852282 0
0.194196 0.85741 0
0.650843 0.185696 0
0.628589 0.140398 0
0.504917 0.076007 0
0.50366 0.114367 0
0.548742 0.103779 0
0.378761 0.595487 0
0.380208 0.550214 0
0.466523 0.368506 0
0.783675 0.0347525 0
0.75 0 0
0.595056 0.120002 0
0.20263 0.384402 0
0.183224 0.431359 0
0.214741 0.417484 0
0.084015 0.29788 0
0.109114 0.342258 0
0.122552 0.29764 0
0.370334 0.82512 0
0.387646 0.864998 0
0.406461 0.829835 0
0.355164 0.351116 0
0.345461 0.389393 0
0.38124 0.369312 0
0.177444 0.641792 0
0.157107 0.604507 0
0.0286115 0.437949 0
0.0286115 0.487949 0
0 0.45 0
0.184917 0.578051 0
0.216794 0.552094 0
0.310754 0.412615 0
0.268135 0.41228 0
0.13984 0.408422 0
0.159382 0.370147 0
0.128108 0.380293 0
0.784378 0.167398 0
0.797145 0.21454 0
0.649424 0.382815 0
0.693196 0.390508 0
0.682209 0.350082 0
0.471401 0.267911 0
0.482069 0.229507 0
0.600319 0.323089 0
0.597356 0.371644 0
0.370215 0.185901 0
0.420304 0.369225 0
0.410601 0.407502 0
0.5 0.65 0
0.293615 0.645334 0
0.325979 0.66246 0
0.342624 0.703635 0
0.356309 0.666965 0
0.24951 0.782974 0
0.289009 0.779588 0
0.810542 0.362514 0
0.76432 0.338993 0
0.772204 0.381296 0
0.70942 0.286852 0
0.705431 0.332443 0
0.729969 0.312184 0
0.831184 0.106754 0
0.88081 0.111511 0
0.700748 0.430301 0
0.733534 0.397568 0
0.850584 0.326758 0
0.229212 0.186988 0
0.407496 0.52144 0
0.369845 0.506468 0
0.413594 0.760165 0
0.405497 0.719256 0
0.381051 0.749049 0
0.444574 0.794979 0
0.383872 0.640216 0
0.400517 0.681391 0
0.355233 0.0967005 0
0.42608 0.078274 0
0.379662 0.102076 0
0.055907 0.589708 0
0.0873405 0.613876 0
0.072862 0.718619 0
0.0918955 0.751177 0
0.105798 0.716711 0
0.234794 0.74574 0
0.213514 0.780928 0
0.143437 0.712141 0
0.72332 0.190623 0
0.744653 0.160332 0
0.788301 0.105758 0
0.748577 0.0986915 0
0.769527 0.134944 0
0.357928 0.894445 0
0.318709 0.915359 0
0.0802555 0.874244 0
0.121571 0.864297 0
0.32234 0.494638 0
0.349629 0.465863 0
0.384335 0.442641 0
0.336831 0.43081 0
0.608343 0.412069 0
0.527752 0.244716 0
0.858468 0.369061 0
0.627123 0.221367 0
0.382188 0.284319 0
0.345561 0.3138 0
0.437163 0.330315 0
0.746731 0.229689 0
0.149179 0.573985 0
0.720027 0.100984 0
0.810234 0.070501 0
0.861213 0.415162 0
0.827831 0.478851 0
0.85 0.5 0
0.082894 0.447232 0
0.0883665 0.492719 0
0.0578625 0.514002 0
0.300642 0.749391 0
0.351723 0.729569 0
0.321394 0.725064 0
0.416449 0.301103 0
0.462668 0.300384 0
0.837044 0.431259 0
</DataArray>
</Points>
<Cells>
<DataArray  type="UInt32"  Name="connectivity"  format="ascii">
1 138 139 
14 137 139 
45 137 138 
137 138 139 
4 141 142 
27 140 142 
65 140 141 
140 141 142 
0 144 145 
23 143 145 
43 143 144 
143 144 145 
4 141 147 
65 141 146 
105 146 147 
141 146 147 
5 149 150 
31 148 150 
47 148 149 
148 149 150 
2 152 153 
32 151 153 
44 151 152 
151 152 153 
2 152 155 
15 154 155 
44 152 154 
152 154 155 
15 154 157 
44 154 156 
101 156 157 
154 156 157 
6 159 160 
43 158 160 
93 158 159 
158 159 160 
15 162 163 
16 161 163 
71 161 162 
161 162 163 
6 159 165 
7 164 165 
93 159 164 
159 164 165 
[...]
<PointData  Vectors="u"> 
<DataArray  type="Float32"  Name="u"  NumberOfComponents="3" format="ascii">
 0.000000e+00 0.000000e+00 0.000000e+00
 4.441281e-02 -2.123162e-02 0.000000e+00
 2.614857e-02 -5.138847e-02 0.000000e+00
 3.076018e-02 2.034885e-02 0.000000e+00
 0.000000e+00 0.000000e+00 0.000000e+00
 -3.004941e-02 -6.401218e-02 0.000000e+00
 0.000000e+00 0.000000e+00 0.000000e+00
 0.000000e+00 0.000000e+00 0.000000e+00
 0.000000e+00 0.000000e+00 0.000000e+00
 0.000000e+00 0.000000e+00 0.000000e+00
 0.000000e+00 0.000000e+00 0.000000e+00
 0.000000e+00 0.000000e+00 0.000000e+00
 0.000000e+00 0.000000e+00 0.000000e+00
 0.000000e+00 0.000000e+00 0.000000e+00
 0.000000e+00 0.000000e+00 0.000000e+00
 0.000000e+00 0.000000e+00 0.000000e+00
 0.000000e+00 0.000000e+00 0.000000e+00
 0.000000e+00 0.000000e+00 0.000000e+00
 0.000000e+00 0.000000e+00 0.000000e+00
 0.000000e+00 0.000000e+00 0.000000e+00
 0.000000e+00 0.000000e+00 0.000000e+00
 0.000000e+00 0.000000e+00 0.000000e+00
 0.000000e+00 0.000000e+00 0.000000e+00
 0.000000e+00 0.000000e+00 0.000000e+00
 0.000000e+00 0.000000e+00 0.000000e+00
 0.000000e+00 0.000000e+00 0.000000e+00
 0.000000e+00 0.000000e+00 0.000000e+00
 0.000000e+00 0.000000e+00 0.000000e+00
 0.000000e+00 0.000000e+00 0.000000e+00
 0.000000e+00 0.000000e+00 0.000000e+00
 0.000000e+00 0.000000e+00 0.000000e+00
 0.000000e+00 0.000000e+00 0.000000e+00
 2.763791e-02 -1.963685e-01 0.000000e+00
 1.111538e-02 -3.222779e-01 0.000000e+00
 -6.836804e-03 -3.308506e-01 0.000000e+00
 -2.726613e-02 -2.135316e-01 0.000000e+00
 2.205839e-01 -1.382831e-02 0.000000e+00
 3.441282e-01 7.595901e-03 0.000000e+00
 3.274556e-01 2.166742e-02 0.000000e+00
 1.891932e-01 2.704758e-02 0.000000e+00
 1.577670e-01 -2.091005e-01 0.000000e+00
 2.893265e-02 -3.602952e-01 0.000000e+00
 3.777325e-01 -1.900114e-02 0.000000e+00
 -3.066569e-03 2.744558e-03 0.000000e+00
 2.586410e-02 -9.360051e-02 0.000000e+00
 1.513378e-01 -9.799808e-03 0.000000e+00
 7.230568e-02 1.890873e-02 0.000000e+00
 -2.538893e-02 -1.461395e-01 0.000000e+00
 5.857118e-02 -2.659271e-01 0.000000e+00
 3.048133e-01 -1.740980e-01 0.000000e+00
 3.734661e-01 2.679666e-02 0.000000e+00
 5.213142e-03 -3.504524e-01 0.000000e+00
 4.811601e-02 -6.419470e-02 0.000000e+00
 1.774387e-01 -6.251199e-02 0.000000e+00
 3.032160e-01 -3.027852e-02 0.000000e+00
 8.765443e-03 -2.388386e-01 0.000000e+00
 1.380901e-02 -2.964702e-01 0.000000e+00
 7.896231e-02 -3.486868e-01 0.000000e+00
 3.991177e-02 -1.433051e-01 0.000000e+00
 3.100809e-01 1.107332e-02 0.000000e+00
 2.417655e-01 2.243526e-02 0.000000e+00
 1.595931e-02 -2.086735e-01 0.000000e+00
 1.439580e-02 -2.867082e-01 0.000000e+00
 3.200519e-01 7.888787e-03 0.000000e+00
 2.963931e-01 2.839857e-02 0.000000e+00
 1.768625e-01 -6.182059e-02 0.000000e+00
 6.873243e-02 -3.085021e-02 0.000000e+00
 2.915012e-01 -9.225465e-02 0.000000e+00
 -8.203472e-03 -1.726311e-01 0.000000e+00
 9.663394e-03 -3.552544e-01 0.000000e+00
 4.916626e-03 -8.027223e-03 0.000000e+00
 6.707948e-03 -1.607702e-01 0.000000e+00
 1.690603e-01 -5.213303e-03 0.000000e+00
 1.833431e-01 -3.059166e-01 0.000000e+00
 2.551230e-01 8.072920e-04 0.000000e+00
 1.825092e-01 -2.144231e-02 0.000000e+00
 2.077145e-02 -1.270738e-01 0.000000e+00
 7.894503e-04 -3.533656e-01 0.000000e+00
 5.848023e-02 -3.491072e-01 0.000000e+00
 2.150973e-02 -1.792801e-01 0.000000e+00
 9.637382e-02 -2.414828e-01 0.000000e+00
 1.428581e-02 -4.905311e-02 0.000000e+00
 2.816350e-01 -1.267574e-02 0.000000e+00
 3.605526e-01 -6.501326e-02 0.000000e+00
 2.247592e-01 -1.549797e-01 0.000000e+00
 3.801687e-02 -3.413215e-01 0.000000e+00
 1.538323e-02 -3.652393e-01 0.000000e+00
 3.702076e-01 2.005632e-02 0.000000e+00
 3.606996e-01 2.063976e-02 0.000000e+00
 1.737163e-01 3.889558e-03 0.000000e+00
 1.527369e-01 1.936751e-02 0.000000e+00
 1.307481e-01 -1.171734e-01 0.000000e+00
 3.755247e-02 -2.391249e-01 0.000000e+00
 1.001848e-02 -1.058489e-02 0.000000e+00
 2.415404e-03 -2.490655e-01 0.000000e+00
 1.084422e-02 -1.771813e-01 0.000000e+00
 8.152685e-02 -1.467332e-02 0.000000e+00
 5.863162e-03 -1.534157e-01 0.000000e+00
 1.747674e-02 -2.891858e-01 0.000000e+00
 3.228261e-01 1.518550e-02 0.000000e+00
 -1.556020e-02 -2.805970e-01 0.000000e+00
 1.859267e-02 -1.575121e-01 0.000000e+00
 1.071801e-02 -2.968036e-01 0.000000e+00
 1.166247e-01 -3.307006e-01 0.000000e+00
 7.705595e-02 -1.477883e-01 0.000000e+00
 2.148718e-01 -2.392799e-01 0.000000e+00
 7.866281e-02 7.675423e-03 0.000000e+00
 3.442117e-01 -8.310550e-02 0.000000e+00
 3.105395e-01 3.124455e-02 0.000000e+00
 3.628756e-01 -2.002944e-02 0.000000e+00
 2.381682e-01 -2.407357e-01 0.000000e+00
 3.753975e-01 4.663729e-03 0.000000e+00
 7.781801e-03 -4.745509e-02 0.000000e+00
 5.953805e-02 1.122454e-02 0.000000e+00
 3.743511e-02 -2.792821e-01 0.000000e+00
 1.967802e-01 5.517901e-03 0.000000e+00
 3.172912e-02 -3.140549e-01 0.000000e+00
 5.226881e-02 -2.026345e-01 0.000000e+00
 2.295905e-03 -9.783906e-02 0.000000e+00
 1.278255e-01 1.623690e-02 0.000000e+00
 3.614086e-03 -1.374540e-01 0.000000e+00
 5.119532e-03 -5.834112e-02 0.000000e+00
 4.614665e-03 -7.422981e-02 0.000000e+00
 1.192742e-02 -3.372572e-01 0.000000e+00
 2.215093e-02 -3.544023e-01 0.000000e+00
 3.336955e-01 7.166192e-03 0.000000e+00
 2.892812e-03 -7.412298e-02 0.000000e+00
 1.490205e-02 -3.367374e-01 0.000000e+00
 1.212488e-01 -1.852903e-02 0.000000e+00
 -4.943214e-03 -3.057314e-01 0.000000e+00
 1.236655e-01 -3.113071e-01 0.000000e+00
 1.630482e-01 -2.796732e-01 0.000000e+00
 1.785501e-01 6.155542e-03 0.000000e+00
 2.922507e-01 -1.651945e-01 0.000000e+00
 3.750546e-01 1.891750e-02 0.000000e+00
 4.685439e-02 5.573074e-03 0.000000e+00
 3.360776e-01 -1.229311e-01 0.000000e+00
 7.017406e-02 -5.575160e-03 0.000000e+00
 7.415880e-02 -1.866518e-02 0.000000e+00
 0.000000e+00 0.000000e+00 0.000000e+00
 2.965706e-02 -9.436285e-03 0.000000e+00
 7.597833e-02 -5.585490e-02 0.000000e+00
 0.000000e+00 0.000000e+00 0.000000e+00
 -1.459742e-03 4.777717e-03 0.000000e+00
 -2.095456e-03 2.088317e-03 0.000000e+00
 0.000000e+00 0.000000e+00 0.000000e+00
 2.074238e-01 -1.443789e-01 0.000000e+00
 1.294585e-01 -1.711520e-01 0.000000e+00
 -1.335892e-02 -7.136195e-02 0.000000e+00
 -2.932335e-02 -8.472524e-02 0.000000e+00
 0.000000e+00 0.000000e+00 0.000000e+00
 3.028309e-02 -1.461358e-01 0.000000e+00
 2.695035e-02 -6.279888e-02 0.000000e+00
 3.176285e-02 -1.040819e-01 0.000000e+00
 1.100132e-02 -4.212417e-02 0.000000e+00
 0.000000e+00 0.000000e+00 0.000000e+00
 2.207236e-02 -1.247881e-01 0.000000e+00
 9.968361e-03 -7.165987e-02 0.000000e+00
 5.660341e-05 -2.643411e-03 0.000000e+00
 -3.262388e-03 -1.105387e-03 0.000000e+00
 -4.534481e-03 1.154266e-03 0.000000e+00
 1.788823e-03 -6.450459e-02 0.000000e+00
 3.869683e-03 -7.016519e-02 0.000000e+00
 0.000000e+00 0.000000e+00 0.000000e+00
 3.607871e-03 -3.657077e-03 0.000000e+00
 0.000000e+00 0.000000e+00 0.000000e+00
 0.000000e+00 0.000000e+00 0.000000e+00
 7.936650e-02 -2.315918e-02 0.000000e+00
 3.302848e-02 -4.110040e-03 0.000000e+00
 3.911019e-02 -9.203696e-03 0.000000e+00
 3.769981e-03 -1.290348e-01 0.000000e+00
 6.319227e-04 -3.688461e-02 0.000000e+00
 5.701325e-04 -3.492338e-02 0.000000e+00
 0.000000e+00 0.000000e+00 0.000000e+00
 8.552656e-03 -1.209376e-02 0.000000e+00
 5.419397e-04 -1.103566e-04 0.000000e+00
 2.148479e-02 -7.822466e-03 0.000000e+00
 0.000000e+00 0.000000e+00 0.000000e+00
 4.591572e-02 -3.987585e-03 0.000000e+00
 0.000000e+00 0.000000e+00 0.000000e+00
 1.012063e-01 -4.920957e-03 0.000000e+00
 8.808075e-02 -6.756644e-03 0.000000e+00
 0.000000e+00 0.000000e+00 0.000000e+00
 2.534269e-01 -5.287815e-02 0.000000e+00
 1.892829e-01 -4.036978e-02 0.000000e+00
 2.365459e-01 -8.098559e-02 0.000000e+00
 8.554615e-02 -2.992331e-04 0.000000e+00
 8.174828e-02 -1.576576e-03 0.000000e+00
 0.000000e+00 0.000000e+00 0.000000e+00
 2.150295e-01 -3.294691e-03 0.000000e+00
 1.330263e-01 6.207498e-04 0.000000e+00
 9.952817e-02 1.636207e-02 0.000000e+00
 4.795826e-02 6.798995e-03 0.000000e+00
 2.641829e-02 7.239582e-03 0.000000e+00
 4.407074e-03 -1.131898e-01 0.000000e+00
 5.925286e-04 -2.728694e-02 0.000000e+00
 1.416733e-03 -5.924555e-02 0.000000e+00
 7.876578e-04 -2.478092e-02 0.000000e+00
 0.000000e+00 0.000000e+00 0.000000e+00
 1.289351e-01 -2.655396e-01 0.000000e+00
 1.635391e-01 -2.452662e-01 0.000000e+00
 1.262038e-01 -2.310527e-01 0.000000e+00
 9.959264e-03 -1.133644e-01 0.000000e+00
 3.215529e-02 -1.461164e-01 0.000000e+00
 0.000000e+00 0.000000e+00 0.000000e+00
 1.982702e-02 -2.051103e-01 0.000000e+00
 4.244130e-03 -8.321412e-02 0.000000e+00
 6.481183e-03 -1.559024e-01 0.000000e+00
 1.272390e-03 -5.801433e-02 0.000000e+00
 2.466444e-03 -7.485750e-02 0.000000e+00
 5.296634e-04 -5.503500e-02 0.000000e+00
 0.000000e+00 0.000000e+00 0.000000e+00
 1.367390e-02 -3.095117e-01 0.000000e+00
 2.076028e-02 -2.490427e-01 0.000000e+00
 1.968080e-02 -2.732905e-01 0.000000e+00
 8.639042e-02 1.012884e-02 0.000000e+00
 1.557308e-02 1.887723e-03 0.000000e+00
 1.320842e-01 2.594905e-02 0.000000e+00
 4.191530e-02 2.039199e-02 0.000000e+00
 8.831387e-02 2.632863e-02 0.000000e+00
 2.286571e-01 4.140054e-03 0.000000e+00
 9.346682e-02 2.385907e-03 0.000000e+00
 1.320929e-01 2.455672e-03 0.000000e+00
 1.056782e-01 1.555285e-02 0.000000e+00
 1.165416e-02 4.037317e-03 0.000000e+00
 4.619763e-02 7.117799e-03 0.000000e+00
 1.880807e-01 6.172324e-03 0.000000e+00
 8.578527e-02 2.212875e-03 0.000000e+00
 0.000000e+00 0.000000e+00 0.000000e+00
 2.113595e-03 4.092482e-03 0.000000e+00
 0.000000e+00 0.000000e+00 0.000000e+00
 1.238333e-03 -2.240169e-02 0.000000e+00
 1.078242e-03 -2.646086e-02 0.000000e+00
 0.000000e+00 0.000000e+00 0.000000e+00
 1.148077e-02 -1.291880e-01 0.000000e+00
 1.007618e-02 -1.418468e-01 0.000000e+00
 1.889090e-02 -1.952107e-01 0.000000e+00
 -5.542790e-03 -7.983643e-02 0.000000e+00
 -1.091194e-03 -7.327432e-02 0.000000e+00
 0.000000e+00 0.000000e+00 0.000000e+00
 1.388219e-02 -8.445947e-02 0.000000e+00
 1.583466e-03 -1.374516e-02 0.000000e+00
 4.603852e-03 -4.096372e-02 0.000000e+00
 3.560341e-01 1.471856e-02 0.000000e+00
 3.553426e-01 1.357392e-02 0.000000e+00
 3.352928e-01 6.184229e-03 0.000000e+00
 -1.899938e-03 3.090358e-03 0.000000e+00
 3.629415e-03 4.911192e-03 0.000000e+00
 0.000000e+00 0.000000e+00 0.000000e+00
 1.335969e-03 -8.371657e-03 0.000000e+00
 0.000000e+00 0.000000e+00 0.000000e+00
 2.294474e-03 -6.339458e-03 0.000000e+00
 2.823147e-03 -1.334609e-02 0.000000e+00
 0.000000e+00 0.000000e+00 0.000000e+00
 -3.571614e-03 -3.406016e-01 0.000000e+00
 4.888844e-03 -3.423348e-01 0.000000e+00
 2.448821e-03 -3.417410e-01 0.000000e+00
 -2.227283e-02 -2.468048e-01 0.000000e+00
 -1.251467e-02 -3.098052e-01 0.000000e+00
 -1.697887e-02 -2.882224e-01 0.000000e+00
 1.875622e-01 -1.482714e-02 0.000000e+00
 1.103741e-01 -2.195951e-02 0.000000e+00
 7.746653e-02 2.609091e-04 0.000000e+00
 7.976480e-02 1.940534e-03 0.000000e+00
 0.000000e+00 0.000000e+00 0.000000e+00
 3.854406e-01 1.161307e-02 0.000000e+00
 3.850172e-01 -5.420061e-03 0.000000e+00
 3.756303e-01 4.616175e-03 0.000000e+00
 3.471996e-01 2.057121e-02 0.000000e+00
 3.511499e-01 1.574392e-02 0.000000e+00
 -2.156089e-02 -2.203924e-01 0.000000e+00
 -2.949563e-02 -1.810244e-01 0.000000e+00
 -3.311542e-02 -1.183449e-01 0.000000e+00
 1.768643e-01 -1.391981e-01 0.000000e+00
 1.467959e-01 -1.622061e-01 0.000000e+00
 1.923489e-01 -1.855568e-01 0.000000e+00
 1.040996e-01 -1.377689e-01 0.000000e+00
 1.156113e-01 -1.824932e-01 0.000000e+00
 4.402701e-02 -3.363059e-01 0.000000e+00
 3.152008e-02 -3.429655e-01 0.000000e+00
 4.182899e-02 -3.566449e-01 0.000000e+00
 2.497481e-01 -1.533683e-03 0.000000e+00
 2.745394e-01 -3.904767e-03 0.000000e+00
 3.099447e-01 -2.124640e-03 0.000000e+00
 3.616994e-01 -6.066824e-03 0.000000e+00
 3.459292e-01 -1.811732e-02 0.000000e+00
 2.485611e-01 2.602971e-02 0.000000e+00
 3.153238e-01 2.537994e-02 0.000000e+00
 2.733247e-01 2.536852e-02 0.000000e+00
 1.859421e-02 -3.623087e-01 0.000000e+00
 2.657907e-02 -3.652574e-01 0.000000e+00
 2.180439e-02 -3.648736e-01 0.000000e+00
 -1.448696e-02 -2.361923e-01 0.000000e+00
 -1.510335e-02 -1.593645e-01 0.000000e+00
 3.482955e-01 -1.075852e-01 0.000000e+00
 3.253360e-01 -1.493077e-01 0.000000e+00
 3.271765e-01 -1.265842e-01 0.000000e+00
 -2.440285e-04 4.879238e-03 0.000000e+00
 7.174567e-04 2.415050e-03 0.000000e+00
 0.000000e+00 0.000000e+00 0.000000e+00
 3.020791e-01 -2.642911e-03 0.000000e+00
 4.013091e-02 -1.015384e-01 0.000000e+00
 6.350589e-02 -1.035583e-01 0.000000e+00
 2.981542e-02 -6.406293e-02 0.000000e+00
 3.627793e-01 -7.783421e-02 0.000000e+00
 3.638703e-01 -4.671209e-02 0.000000e+00
 3.763976e-01 -4.347110e-02 0.000000e+00
 3.306986e-01 -8.293068e-02 0.000000e+00
 3.410119e-01 -4.770102e-02 0.000000e+00
 3.053041e-01 -5.831554e-02 0.000000e+00
 1.716332e-02 -2.361473e-01 0.000000e+00
 2.632748e-02 -1.781996e-01 0.000000e+00
 -2.944647e-03 -3.401875e-01 0.000000e+00
 3.039958e-04 -3.318992e-01 0.000000e+00
 1.881952e-03 -3.541463e-01 0.000000e+00
 1.656406e-02 -3.162599e-01 0.000000e+00
 2.067197e-02 -3.517289e-01 0.000000e+00
 2.391580e-02 -3.355460e-01 0.000000e+00
 2.171273e-02 -1.534773e-01 0.000000e+00
 3.787823e-02 -2.302754e-01 0.000000e+00
 3.934646e-02 -2.016651e-01 0.000000e+00
 8.370546e-02 -3.443337e-01 0.000000e+00
 8.726496e-02 -3.085302e-01 0.000000e+00
 6.260436e-02 -3.153619e-01 0.000000e+00
 1.664276e-01 -2.802928e-01 0.000000e+00
 9.151644e-02 -2.143729e-01 0.000000e+00
 1.618564e-01 -7.291433e-04 0.000000e+00
 0.000000e+00 0.000000e+00 0.000000e+00
 2.226294e-01 2.436866e-02 0.000000e+00
 1.623937e-01 2.404820e-02 0.000000e+00
 3.221837e-01 1.315700e-02 0.000000e+00
 3.662714e-01 2.110411e-02 0.000000e+00
 3.616680e-01 1.913527e-02 0.000000e+00
 3.003953e-02 -2.329443e-01 0.000000e+00
 4.759298e-02 -2.747919e-01 0.000000e+00
 1.199020e-02 -3.192707e-01 0.000000e+00
 1.226912e-02 -2.970119e-01 0.000000e+00
 9.877548e-03 -2.706114e-01 0.000000e+00
 5.201360e-02 -3.618934e-01 0.000000e+00
 5.507625e-02 -3.459466e-01 0.000000e+00
 7.058203e-02 -3.579381e-01 0.000000e+00
 3.420331e-01 2.659672e-02 0.000000e+00
 3.673569e-01 2.464082e-02 0.000000e+00
 3.478555e-01 2.973361e-02 0.000000e+00
 3.327099e-01 1.640080e-03 0.000000e+00
 3.515525e-01 9.616305e-03 0.000000e+00
 2.855134e-01 6.030265e-03 0.000000e+00
 3.443716e-01 2.812689e-02 0.000000e+00
 3.554240e-01 3.061475e-02 0.000000e+00
 3.741382e-01 2.695194e-02 0.000000e+00
 2.599166e-01 -1.634926e-01 0.000000e+00
 2.964819e-01 -1.271962e-01 0.000000e+00
 2.618858e-01 -1.254769e-01 0.000000e+00
 2.829419e-01 -8.302581e-02 0.000000e+00
 2.712759e-01 -1.321654e-01 0.000000e+00
 1.060321e-01 -7.008649e-02 0.000000e+00
 1.592690e-01 -9.201192e-02 0.000000e+00
 1.204444e-01 -4.760515e-02 0.000000e+00
 1.009457e-01 -1.674121e-02 0.000000e+00
 6.112625e-02 -4.828672e-03 0.000000e+00
 8.870940e-02 -1.946360e-01 0.000000e+00
 5.752067e-02 -1.508545e-01 0.000000e+00
 6.660075e-02 -1.968910e-01 0.000000e+00
 3.652665e-01 -3.992924e-02 0.000000e+00
 3.369842e-01 -2.712619e-02 0.000000e+00
 5.633918e-03 -3.581672e-01 0.000000e+00
 7.721369e-03 -3.625539e-01 0.000000e+00
 6.859338e-03 -3.009761e-01 0.000000e+00
 8.316625e-03 -3.448536e-01 0.000000e+00
 3.547262e-03 -3.144662e-01 0.000000e+00
 1.139095e-02 -2.293378e-01 0.000000e+00
 1.737764e-02 -2.521191e-01 0.000000e+00
 9.999979e-03 -1.836318e-01 0.000000e+00
 8.098880e-03 -3.436985e-01 0.000000e+00
 3.432806e-02 -2.151383e-02 0.000000e+00
 2.969821e-02 -3.256368e-02 0.000000e+00
 6.388840e-02 -5.116935e-02 0.000000e+00
 9.867060e-03 -2.545788e-02 0.000000e+00
 2.107744e-02 -3.419900e-02 0.000000e+00
 9.305123e-03 -2.377582e-01 0.000000e+00
 6.876122e-03 -2.018977e-01 0.000000e+00
 1.089442e-02 -3.338216e-01 0.000000e+00
 1.168948e-02 -2.975815e-01 0.000000e+00
 1.032878e-02 -3.325824e-01 0.000000e+00
 3.711675e-01 -6.696859e-03 0.000000e+00
 3.249893e-01 -6.306261e-03 0.000000e+00
 1.810060e-01 -1.233309e-02 0.000000e+00
 2.473425e-01 -2.811263e-02 0.000000e+00
 2.488568e-01 -1.539330e-02 0.000000e+00
 4.054847e-02 -3.017989e-01 0.000000e+00
 6.324003e-02 -3.140589e-01 0.000000e+00
 2.646905e-01 -2.087521e-01 0.000000e+00
 8.094365e-02 2.231505e-03 0.000000e+00
 0.000000e+00 0.000000e+00 0.000000e+00
 2.890053e-01 -1.040556e-02 0.000000e+00
 7.293328e-02 -2.262440e-01 0.000000e+00
 5.638497e-02 -2.354155e-01 0.000000e+00
 7.692589e-02 -2.581060e-01 0.000000e+00
 1.094447e-02 -5.030249e-02 0.000000e+00
 2.090018e-02 -9.655085e-02 0.000000e+00
 2.594043e-02 -9.210798e-02 0.000000e+00
 -1.230214e-03 -2.813425e-01 0.000000e+00
 -8.063703e-03 -2.494964e-01 0.000000e+00
 -2.887242e-03 -2.114263e-01 0.000000e+00
 1.999742e-01 -2.653372e-01 0.000000e+00
 1.763845e-01 -2.967652e-01 0.000000e+00
 2.142658e-01 -2.759326e-01 0.000000e+00
 2.373487e-02 -3.034469e-01 0.000000e+00
 2.411986e-02 -2.686218e-01 0.000000e+00
 1.092656e-03 -1.348928e-02 0.000000e+00
 1.205018e-03 -1.836111e-02 0.000000e+00
 0.000000e+00 0.000000e+00 0.000000e+00
 3.492464e-02 -2.979553e-01 0.000000e+00
 4.909073e-02 -3.221756e-01 0.000000e+00
 1.408221e-01 -3.088965e-01 0.000000e+00
 1.125137e-01 -2.919414e-01 0.000000e+00
 3.489813e-02 -1.686139e-01 0.000000e+00
 4.652777e-02 -1.726344e-01 0.000000e+00
 2.969182e-02 -1.389665e-01 0.000000e+00
 3.549784e-01 1.823855e-02 0.000000e+00
 3.780650e-01 2.414144e-02 0.000000e+00
 1.860550e-01 1.387269e-03 0.000000e+00
 1.638178e-01 1.510905e-02 0.000000e+00
 2.592316e-01 1.039208e-02 0.000000e+00
 3.159319e-01 -1.455982e-01 0.000000e+00
 3.186552e-01 -1.102687e-01 0.000000e+00
 3.215952e-01 -4.589316e-02 0.000000e+00
 2.291582e-01 -3.574966e-02 0.000000e+00
 2.080161e-01 -1.065540e-01 0.000000e+00
 2.422405e-01 -2.561748e-01 0.000000e+00
 2.044876e-01 -2.850103e-01 0.000000e+00
 0.000000e+00 0.000000e+00 0.000000e+00
 3.513541e-02 -3.634007e-01 0.000000e+00
 2.928441e-02 -3.481772e-01 0.000000e+00
 1.882489e-02 -3.290541e-01 0.000000e+00
 2.450195e-02 -3.174686e-01 0.000000e+00
 1.170169e-02 -3.628693e-01 0.000000e+00
 1.038542e-02 -3.606945e-01 0.000000e+00
 2.405171e-01 2.804225e-02 0.000000e+00
 2.797663e-01 2.832518e-02 0.000000e+00
 1.953146e-01 2.452102e-02 0.000000e+00
 3.551891e-01 1.484869e-02 0.000000e+00
 2.922584e-01 1.723687e-02 0.000000e+00
 3.230878e-01 2.213831e-02 0.000000e+00
 2.590085e-01 9.522164e-03 0.000000e+00
 2.621107e-01 5.439741e-03 0.000000e+00
 6.625412e-02 1.134187e-02 0.000000e+00
 1.508142e-01 1.950114e-02 0.000000e+00
 3.031390e-01 3.080965e-02 0.000000e+00
 8.595485e-02 -9.316038e-02 0.000000e+00
 7.423172e-02 -2.843341e-01 0.000000e+00
 9.821862e-02 -3.336421e-01 0.000000e+00
 3.854569e-03 -1.971688e-01 0.000000e+00
 8.455189e-03 -2.203831e-01 0.000000e+00
 7.861211e-03 -2.676476e-01 0.000000e+00
 3.413659e-04 -1.164405e-01 0.000000e+00
 2.516731e-02 -2.806383e-01 0.000000e+00
 1.381109e-02 -2.378987e-01 0.000000e+00
 1.349810e-01 -3.591251e-02 0.000000e+00
 1.518920e-01 -2.069044e-02 0.000000e+00
 1.571700e-01 -3.834139e-02 0.000000e+00
 3.711478e-03 -7.467886e-02 0.000000e+00
 8.194088e-03 -1.439812e-01 0.000000e+00
 3.677435e-03 -1.264568e-01 0.000000e+00
 5.340292e-03 -1.723534e-01 0.000000e+00
 7.374839e-03 -1.980624e-01 0.000000e+00
 1.584511e-02 -3.589406e-01 0.000000e+00
 1.240618e-02 -3.484353e-01 0.000000e+00
 1.218817e-02 -2.666170e-01 0.000000e+00
 3.762714e-01 1.324134e-02 0.000000e+00
 3.519299e-01 1.472789e-02 0.000000e+00
 2.626854e-01 1.073529e-02 0.000000e+00
 2.522124e-01 9.437367e-03 0.000000e+00
 3.175148e-01 1.406969e-02 0.000000e+00
 -1.037433e-02 -2.938772e-01 0.000000e+00
 -6.768584e-03 -3.310747e-01 0.000000e+00
 1.082153e-02 -1.594619e-01 0.000000e+00
 1.252314e-02 -2.408201e-01 0.000000e+00
 1.018420e-01 -3.488227e-01 0.000000e+00
 1.288454e-01 -3.379683e-01 0.000000e+00
 1.594806e-01 -3.172722e-01 0.000000e+00
 1.475639e-01 -3.235772e-01 0.000000e+00
 1.168912e-01 -1.161516e-02 0.000000e+00
 3.509462e-01 -9.219190e-02 0.000000e+00
 2.354025e-01 2.614665e-02 0.000000e+00
 3.811499e-01 -2.215102e-02 0.000000e+00
 2.369891e-01 -1.989237e-01 0.000000e+00
 1.992895e-01 -2.310154e-01 0.000000e+00