<?xml version="1.0"?>
<VTKFile type="UnstructuredGrid"  version="0.1"  >
<UnstructuredGrid>
<Piece  NumberOfPoints="505" NumberOfCells="928">
<Points>
<DataArray  type="Float32"  NumberOfComponents="3"  format="ascii">
0 0 0
1 0 0
0 1 0
1 0.5 0
0.5 0.5 0
0.5 1 0
0.1 0 0
0.2 0 0
0.3 0 0
0.4 0 0
0.5 0 0
0.6 0 0
0.7 0 0
0.8 0 0
0.9 0 0
0 0.9 0
0 0.8 0
0 0.7 0
0 0.6 0
0 0.5 0
0 0.4 0
0 0.3 0
0 0.2 0
0 0.1 0
0.9 0.5 0
0.8 0.5 0
0.7 0.5 0
0.6 0.5 0
0.5 0.6 0
0.5 0.7 0
0.5 0.8 0
0.5 0.9 0
0.1 1 0
0.2 1 0
0.3 1 0
0.4 1 0
1 0.1 0
1 0.2 0
1 0.3 0
1 0.4 0
0.300178 0.296564 0
0.247566 0.664879 0
0.639694 0.259804 0
0.06564 0.06472 0
0.04439 0.954144 0
0.932418 0.064715 0
0.951013 0.456419 0
0.437622 0.939659 0
0.195334 0.464441 0
0.483382 0.329596 0
0.834786 0.236295 0
0.307228 0.81139 0
0.178229 0.173372 0
0.366998 0.134199 0
0.547485 0.14214 0
0.124832 0.74927 0
0.160163 0.896658 0
0.342556 0.535243 0
0.147651 0.342018 0
0.729803 0.127878 0
0.725981 0.357775 0
0.121369 0.600441 0
0.372954 0.70814 0
0.908503 0.151525 0
0.89851 0.333305 0
0.556275 0.400898 0
0.259184 0.092178 0
0.46329 0.194362 0
0.423773 0.869712 0
0.22823 0.818162 0
0.081292 0.144905 0
0.082979 0.831935 0
0.549999 0.065419 0
0.371537 0.407588 0
0.642628 0.097865 0
0.459835 0.086595 0
0.108565 0.418567 0
0.273082 0.902112 0
0.256598 0.556659 0
0.11951 0.509541 0
0.234147 0.370527 0
0.097453 0.253261 0
0.638438 0.342389 0
0.554656 0.224779 0
0.373432 0.237603 0
0.339663 0.62579 0
0.27079 0.747786 0
0.733958 0.266592 0
0.928527 0.244458 0
0.853116 0.071497 0
0.818426 0.404817 0
0.280194 0.200604 0
0.417859 0.565185 0
0.147241 0.079056 0
0.389149 0.789957 0
0.42808 0.654642 0
0.343469 0.059202 0
0.086765 0.684153 0
0.162043 0.675011 0
0.809252 0.14201 0
0.364337 0.928607 0
0.077532 0.916553 0
0.159064 0.807906 0
0.302124 0.454032 0
0.205909 0.272176 0
0.449664 0.407415 0
0.66041 0.423241 0
0.562201 0.303789 0
0.802658 0.320211 0
0.614551 0.182931 0
0.390944 0.331035 0
0.687136 0.18846 0
0.070577 0.342498 0
0.741087 0.437361 0
0.176989 0.547528 0
0.710251 0.07409 0
0.192845 0.608574 0
0.171114 0.398277 0
0.058959 0.753084 0
0.904 0.425508 0
0.438039 0.730373 0
0.057223 0.475897 0
0.058502 0.552106 0
0.330493 0.750997 0
0.312295 0.699131 0
0.684882 0.307111 0
0.053312 0.627311 0
0.198798 0.743695 0
0.392326 0.069953 0
0.351519 0.860283 0
0.397134 0.477694 0
0.319385 0.371198 0
0.767351 0.069505 0
0.441954 0.271171 0
0.759504 0.192785 0
0.855661 0.457701 0
0.500847 0.264652 0
0.916209 0.0323575 0
0.966209 0.0323575 0
0.95 0 0
0.578137 0.450449 0
0.528137 0.450449 0
0.55 0.5 0
0.03282 0.08236 0
0.03282 0.03236 0
0 0.05 0
0.502969 0.404157 0
0.474832 0.453708 0
0.468811 0.91983 0
0.468811 0.96983 0
0.5 0.95 0
0.072195 0.977072 0
0.022195 0.977072 0
0.05 1 0
0.022195 0.927072 0
0 0.95 0
0.060961 0.935348 0
0.038766 0.908276 0
0.106441 0.071888 0
0.123621 0.039528 0
0.08282 0.03236 0
0.0414895 0.815967 0
0.0414895 0.865968 0
0 0.85 0
0.173621 0.039528 0
0.15 0 0
0.05 0 0
0.301327 0.07569 0
0.321735 0.029601 0
0.279592 0.046089 0
0.070969 0.792509 0
0.0294795 0.776542 0
0.0294795 0.726542 0
0 0.75 0
0.114267 0.111981 0
0.073466 0.104813 0
0.229592 0.046089 0
0.25 0 0
0.371735 0.029601 0
0.35 0 0
0.479917 0.0432975 0
0.429918 0.0432975 0
0.45 0 0
0.461562 0.140479 0
0.413416 0.110397 0
0.415144 0.16428 0
0.574999 0.0327095 0
0.525 0.0327095 0
0.55 0 0
0.596313 0.081642 0
0.621314 0.0489325 0
0.927507 0.440964 0
0.902 0.462754 0
0.925507 0.47821 0
0.0700385 0.655732 0
0.026656 0.663655 0
0.0433825 0.692076 0
0.026656 0.613655 0
0 0.65 0
0.276766 0.370862 0
0.309781 0.333881 0
0.267162 0.333545 0
0.458929 0.582593 0
0.458929 0.532593 0
0.5 0.55 0
0.422969 0.609913 0
0.46404 0.627321 0
0.43306 0.692508 0
0.46902 0.715186 0
0.46404 0.677321 0
0.46902 0.765186 0
0.5 0.75 0
0.180082 0.948329 0
0.130082 0.948329 0
0.15 1 0
0.87983 0.441605 0
0.87783 0.478851 0
0.975507 0.42821 0
0.975507 0.47821 0
1 0.45 0
0.676439 0.0859775 0
0.705125 0.037045 0
0.671314 0.0489325 0
0.779756 0.421089 0
0.770544 0.46868 0
0.809213 0.452408 0
0.738801 0.0717975 0
0.733675 0.0347525 0
0.95 0.5 0
0.720544 0.46868 0
0.75 0.5 0
0.029251 0.526053 0
0.029251 0.576053 0
0 0.55 0
0.089006 0.530824 0
0.0899355 0.576273 0
0.12044 0.554991 0
0.461886 0.884856 0
0.461886 0.834856 0
0.5 0.85 0
0.089571 0.380533 0
0.0352885 0.371249 0
0.0542825 0.409284 0
0.918515 0.197991 0
0.964263 0.222229 0
0.954252 0.175762 0
0.630205 0.46162 0
0.680205 0.46162 0
0.65 0.5 0
0.0352885 0.321249 0
0 0.35 0
0.0487265 0.226631 0
0.0487265 0.276631 0
0 0.25 0
0.286541 0.951056 0
0.236541 0.951056 0
0.25 1 0
0.382169 0.964303 0
0.332168 0.964303 0
0.35 1 0
0.966209 0.0823575 0
1 0.05 0
0.876558 0.0357485 0
0.826558 0.0357485 0
0.85 0 0
0.710547 0.227526 0
0.663415 0.224132 0
0.686826 0.263198 0
0.964263 0.272229 0
1 0.25 0
0.40098 0.934133 0
0.418811 0.96983 0
0.45 1 0
0.326813 0.219104 0
0.290186 0.248584 0
0.336805 0.267084 0
0.243052 0.23639 0
0.253043 0.28437 0
0.224721 0.582616 0
0.220205 0.636726 0
0.252082 0.610769 0
0.92046 0.10812 0
0.954252 0.125762 0
0.66166 0.32475 0
0.662288 0.283458 0
0.639066 0.301096 0
0.949255 0.366653 0
0.949255 0.316653 0
1 0.35 0
0.291542 0.723459 0
0.27993 0.682005 0
0.259178 0.706333 0
0.394055 0.89916 0
0.430698 0.904686 0
0.531524 0.28422 0
0.492115 0.297124 0
0.522791 0.316692 0
0.040646 0.122453 0
0.040646 0.172453 0
0 0.15 0
1 0.15 0
0.151681 0.262718 0
0.192069 0.222774 0
0.137841 0.213317 0
0.558428 0.264284 0
0.600947 0.281797 0
0.597175 0.242291 0
0.508973 0.20957 0
0.551071 0.183459 0
0.505387 0.168251 0
0.118847 0.906605 0
0.088766 0.958276 0
0.3123 0.881198 0
0.329373 0.835836 0
0.290155 0.856751 0
0.18042 0.709353 0
0.223182 0.704287 0
0.204805 0.669945 0
0.114037 0.464054 0
0.157422 0.486991 0
0.15195 0.441504 0
0.279361 0.505346 0
0.248729 0.459236 0
0.225966 0.51055 0
0.423399 0.442555 0
0.448567 0.488847 0
0.892767 0.068106 0
0.65 0 0
0.901255 0.379406 0
0.952 0.412754 0
0.858877 0.146767 0
0.822019 0.189153 0
0.871644 0.19391 0
0.14825 0.528535 0
0.186162 0.505985 0
0.178931 0.775801 0
0.161815 0.746482 0
0.141948 0.778588 0
0.29813 0.591225 0
0.34111 0.580516 0
0.299577 0.545951 0
0.913519 0.288882 0
0.881657 0.240376 0
0.866648 0.2848 0
0.664882 0.143162 0
0.708469 0.158169 0
0.686215 0.112871 0
0.768308 0.293401 0
0.818722 0.278253 0
0.784372 0.251443 0
0.407693 0.254387 0
0.452622 0.232766 0
0.418361 0.215983 0
0.559238 0.352343 0
0.519829 0.365247 0
0.269689 0.146391 0
0.323596 0.167402 0
0.313091 0.113188 0
0.367897 0.0645775 0
0.396163 0.0349765 0
0.220028 0.321352 0
0.17678 0.307097 0
0.190899 0.356272 0
0.584604 0.203855 0
0.581018 0.162535 0
0.250656 0.860137 0
0.267729 0.814776 0
0.359821 0.770477 0
0.31886 0.781193 0
0.348189 0.800674 0
0.124404 0.679582 0
0.141706 0.637726 0
0.104067 0.642297 0
0.216622 0.899385 0
0.203213 0.085617 0
0.162735 0.126214 0
0.218707 0.132775 0
0.0893725 0.199083 0
0.129761 0.159139 0
0.121022 0.819921 0
0.103905 0.790602 0
0.193647 0.813034 0
0.159614 0.852282 0
0.194196 0.85741 0
0.650843 0.185696 0
0.628589 0.140398 0
0.504917 0.076007 0
0.50366 0.114367 0
0.548742 0.103779 0
0.378761 0.595487 0
0.380208 0.550214 0
0.466523 0.368506 0
0.783675 0.0347525 0
0.75 0 0
0.595056 0.120002 0
0.20263 0.384402 0
0.183224 0.431359 0
0.214741 0.417484 0
0.084015 0.29788 0
0.109114 0.342258 0
0.122552 0.29764 0
0.370334 0.82512 0
0.387646 0.864998 0
0.406461 0.829835 0
0.355164 0.351116 0
0.345461 0.389393 0
0.38124 0.369312 0
0.177444 0.641792 0
0.157107 0.604507 0
0.0286115 0.437949 0
0.0286115 0.487949 0
0 0.45 0
0.184917 0.578051 0
0.216794 0.552094 0
0.310754 0.412615 0
0.268135 0.41228 0
0.13984 0.408422 0
0.159382 0.370147 0
0.128108 0.380293 0
0.784378 0.167398 0
0.797145 0.21454 0
0.649424 0.382815 0
0.693196 0.390508 0
0.682209 0.350082 0
0.471401 0.267911 0
0.482069 0.229507 0
0.600319 0.323089 0
0.597356 0.371644 0
0.370215 0.185901 0
0.420304 0.369225 0
0.410601 0.407502 0
0.5 0.65 0
0.293615 0.645334 0
0.325979 0.66246 0
0.342624 0.703635 0
0.356309 0.666965 0
0.24951 0.782974 0
0.289009 0.779588 0
0.810542 0.362514 0
0.76432 0.338993 0
0.772204 0.381296 0
0.70942 0.286852 0
0.705431 0.332443 0
0.729969 0.312184 0
0.831184 0.106754 0
0.88081 0.111511 0
0.700748 0.430301 0
0.733534 0.397568 0
0.850584 0.326758 0
0.229212 0.186988 0
0.407496 0.52144 0
0.369845 0.506468 0
0.413594 0.760165 0
0.405497 0.719256 0
0.381051 0.749049 0
0.444574 0.794979 0
0.383872 0.640216 0
0.400517 0.681391 0
0.355233 0.0967005 0
0.42608 0.078274 0
0.379662 0.102076 0
0.055907 0.589708 0
0.0873405 0.613876 0
0.072862 0.718619 0
0.0918955 0.751177 0
0.105798 0.716711 0
0.234794 0.74574 0
0.213514 0.780928 0
0.143437 0.712141 0
0.72332 0.190623 0
0.744653 0.160332 0
0.788301 0.105758 0
0.748577 0.0986915 0
0.769527 0.134944 0
0.357928 0.894445 0
0.318709 0.915359 0
0.0802555 0.874244 0
0.121571 0.864297 0
0.32234 0.494638 0
0.349629 0.465863 0
0.384335 0.442641 0
0.336831 0.43081 0
0.608343 0.412069 0
0.527752 0.244716 0
0.858468 0.369061 0
0.627123 0.221367 0
0.382188 0.284319 0
0.345561 0.3138 0
0.437163 0.330315 0
0.746731 0.229689 0
0.149179 0.573985 0
0.720027 0.100984 0
0.810234 0.070501 0
0.861213 0.415162 0
0.827831 0.478851 0
0.85 0.5 0
0.082894 0.447232 0
0.0883665 0.492719 0
0.0578625 0.514002 0
0.300642 0.749391 0
0.351723 0.729569 0
0.321394 0.725064 0
0.416449 0.301103 0
0.462668 0.300384 0
0.837044 0.431259 0
</DataArray>
</Points>
<Cells>
<DataArray  type="UInt32"  Name="connectivity"  format="ascii">
1 138 139 
14 137 139 
45 137 138 
137 138 139 
4 141 142 
27 140 142 
65 140 141 
140 141 142 
0 144 145 
23 143 145 
43 143 144 
143 144 145 
4 141 147 
65 141 146 
105 146 147 
141 146 147 
5 149 150 
31 148 150 
47 148 149 
148 149 150 
2 152 153 
32 151 153 
44 151 152 
151 152 153 
2 152 155 
15 154 155 
44 152 154 
152 154 155 
15 154 157 
44 154 156 
101 156 157 
154 156 157 
6 159 160 
43 158 160 
93 158 159 
158 159 160 
15 162 163 
16 161 163 
71 161 162 
161 162 163 
6 159 165 
7 164 165 
93 159 164 
159 164 165 
[...]
<PointData  Vectors="u"> 
<DataArray  type="Float32"  Name="u"  NumberOfComponents="3" format="ascii">
 0.000000e+00 0.000000e+00 0.000000e+00
 1.501560e-01 -3.320387e-02 0.000000e+00
 2.753897e-02 -1.495031e-01 0.000000e+00
 1.402524e-01 2.777973e-02 0.000000e+00
 0.000000e+00 0.000000e+00 0.000000e+00
 -3.229897e-02 -1.665413e-01 0.000000e+00
 0.000000e+00 0.000000e+00 0.000000e+00
 0.000000e+00 0.000000e+00 0.000000e+00
 0.000000e+00 0.000000e+00 0.000000e+00
 0.000000e+00 0.000000e+00 0.000000e+00
 0.000000e+00 0.000000e+00 0.000000e+00
 0.000000e+00 0.000000e+00 0.000000e+00
 0.000000e+00 0.000000e+00 0.000000e+00
 0.000000e+00 0.000000e+00 0.000000e+00
 0.000000e+00 0.000000e+00 0.000000e+00
 0.000000e+00 0.000000e+00 0.000000e+00
 0.000000e+00 0.000000e+00 0.000000e+00
 0.000000e+00 0.000000e+00 0.000000e+00
 0.000000e+00 0.000000e+00 0.000000e+00
 0.000000e+00 0.000000e+00 0.000000e+00
 0.000000e+00 0.000000e+00 0.000000e+00
 0.000000e+00 0.000000e+00 0.000000e+00
 0.000000e+00 0.000000e+00 0.000000e+00
 0.000000e+00 0.000000e+00 0.000000e+00
 0.000000e+00 0.000000e+00 0.000000e+00
 0.000000e+00 0.000000e+00 0.000000e+00
 0.000000e+00 0.000000e+00 0.000000e+00
 0.000000e+00 0.000000e+00 0.000000e+00
 0.000000e+00 0.000000e+00 0.000000e+00
 0.000000e+00 0.000000e+00 0.000000e+00
 0.000000e+00 0.000000e+00 0.000000e+00
 0.000000e+00 0.000000e+00 0.000000e+00
 2.074422e-02 -3.029300e-01 0.000000e+00
 5.561432e-03 -3.653162e-01 0.000000e+00
 -2.467222e-03 -3.704187e-01 0.000000e+00
 -1.990685e-02 -3.133277e-01 0.000000e+00
 3.128754e-01 -2.284019e-02 0.000000e+00
 3.668576e-01 -6.090152e-03 0.000000e+00
 3.664623e-01 3.806857e-03 0.000000e+00
 3.109118e-01 2.250688e-02 0.000000e+00
 1.848700e-01 -1.937748e-01 0.000000e+00
 3.558952e-02 -3.786251e-01 0.000000e+00
 3.892773e-01 -3.595889e-02 0.000000e+00
 1.219949e-02 -1.239992e-02 0.000000e+00
 3.559680e-02 -2.157675e-01 0.000000e+00
 2.716688e-01 -2.278341e-02 0.000000e+00
 2.151556e-01 3.159746e-02 0.000000e+00
 -3.100835e-02 -2.710702e-01 0.000000e+00
 7.590546e-02 -2.967175e-01 0.000000e+00
 3.701971e-01 -1.688158e-01 0.000000e+00
 3.827377e-01 -4.434832e-03 0.000000e+00
 8.929326e-03 -3.853203e-01 0.000000e+00
 8.786914e-02 -9.090930e-02 0.000000e+00
 2.159638e-01 -5.996797e-02 0.000000e+00
 3.189147e-01 -3.581914e-02 0.000000e+00
 1.089628e-02 -3.361187e-01 0.000000e+00
 1.110769e-02 -3.607871e-01 0.000000e+00
 1.087378e-01 -3.942091e-01 0.000000e+00
 6.350151e-02 -2.016924e-01 0.000000e+00
 3.477285e-01 -7.825985e-03 0.000000e+00
 3.729798e-01 -4.519272e-03 0.000000e+00
 2.265544e-02 -3.063859e-01 0.000000e+00
 2.079518e-02 -3.763634e-01 0.000000e+00
 3.634525e-01 -9.744150e-03 0.000000e+00
 3.700778e-01 5.952444e-03 0.000000e+00
 3.840604e-01 -8.321714e-02 0.000000e+00
 1.254609e-01 -3.700912e-02 0.000000e+00
 3.002657e-01 -8.293641e-02 0.000000e+00
 -7.503214e-03 -3.020557e-01 0.000000e+00
 1.112292e-02 -3.800586e-01 0.000000e+00
 2.522443e-02 -5.183516e-02 0.000000e+00
 7.332922e-03 -2.921643e-01 0.000000e+00
 2.336645e-01 -9.856148e-03 0.000000e+00
 2.371505e-01 -3.137470e-01 0.000000e+00
 3.062232e-01 -1.038534e-02 0.000000e+00
 2.343234e-01 -2.401447e-02 0.000000e+00
 3.505674e-02 -2.220976e-01 0.000000e+00
 2.649115e-03 -3.794501e-01 0.000000e+00
 7.276221e-02 -3.620803e-01 0.000000e+00
 3.213278e-02 -2.741500e-01 0.000000e+00
 1.215283e-01 -2.470243e-01 0.000000e+00
 3.483396e-02 -1.203217e-01 0.000000e+00
 3.961032e-01 -2.994454e-02 0.000000e+00
 3.593355e-01 -6.502530e-02 0.000000e+00
 2.450134e-01 -1.365143e-01 0.000000e+00
 5.103299e-02 -3.959039e-01 0.000000e+00
 1.946317e-02 -3.860631e-01 0.000000e+00
 3.889462e-01 -1.198418e-02 0.000000e+00
 3.762931e-01 -1.916152e-03 0.000000e+00
 2.822021e-01 -5.065891e-03 0.000000e+00
 3.210603e-01 3.560753e-03 0.000000e+00
 1.655667e-01 -1.142769e-01 0.000000e+00
 6.785632e-02 -3.824743e-01 0.000000e+00
 5.281846e-02 -2.721431e-02 0.000000e+00
 6.203193e-03 -3.540379e-01 0.000000e+00
 1.909536e-02 -3.200144e-01 0.000000e+00
 1.427513e-01 -1.679899e-02 0.000000e+00
 8.991467e-03 -2.814731e-01 0.000000e+00
 2.227945e-02 -3.507328e-01 0.000000e+00
 3.612265e-01 -6.191400e-03 0.000000e+00
 -1.050116e-02 -3.574766e-01 0.000000e+00
 2.146531e-02 -2.868971e-01 0.000000e+00
 1.126507e-02 -3.620100e-01 0.000000e+00
 1.456852e-01 -3.327036e-01 0.000000e+00
 1.087183e-01 -1.667719e-01 0.000000e+00
 3.402417e-01 -2.873410e-01 0.000000e+00
 2.956200e-01 -1.947461e-03 0.000000e+00
 3.962759e-01 -8.414599e-02 0.000000e+00
 3.808654e-01 -1.159360e-03 0.000000e+00
 3.595777e-01 -3.277613e-02 0.000000e+00
 2.751737e-01 -2.227130e-01 0.000000e+00
 3.727454e-01 -1.818936e-02 0.000000e+00
 1.922905e-02 -1.433524e-01 0.000000e+00
 2.560929e-01 1.757567e-03 0.000000e+00
 4.855237e-02 -3.260788e-01 0.000000e+00
 2.782478e-01 -3.652582e-03 0.000000e+00
 3.981906e-02 -3.513654e-01 0.000000e+00
 7.322415e-02 -2.476573e-01 0.000000e+00
 3.508366e-03 -2.334636e-01 0.000000e+00
 2.884812e-01 1.348974e-02 0.000000e+00
 6.815153e-03 -2.774034e-01 0.000000e+00
 1.076064e-02 -1.743423e-01 0.000000e+00
 8.823685e-03 -1.990908e-01 0.000000e+00
 1.680025e-02 -3.866237e-01 0.000000e+00
 2.863274e-02 -3.903903e-01 0.000000e+00
 3.937042e-01 -1.896588e-02 0.000000e+00
 5.476337e-03 -2.025658e-01 0.000000e+00
 1.785727e-02 -3.723479e-01 0.000000e+00
 1.815265e-01 -2.034429e-02 0.000000e+00
 -9.045932e-04 -3.729626e-01 0.000000e+00
 1.964476e-01 -3.941799e-01 0.000000e+00
 1.941979e-01 -2.654799e-01 0.000000e+00
 2.726317e-01 -2.416213e-03 0.000000e+00
 3.117753e-01 -1.461316e-01 0.000000e+00
 3.779262e-01 -9.475860e-03 0.000000e+00
 2.007923e-01 3.054771e-03 0.000000e+00
 3.520662e-01 -1.110818e-01 0.000000e+00
 1.766990e-01 -1.369147e-02 0.000000e+00
 1.887860e-01 -3.340777e-02 0.000000e+00
 0.000000e+00 0.000000e+00 0.000000e+00
 2.457745e-01 -1.981430e-02 0.000000e+00
 3.064496e-01 -1.271788e-01 0.000000e+00
 0.000000e+00 0.000000e+00 0.000000e+00
 4.536334e-03 -1.014004e-02 0.000000e+00
 1.797814e-03 -1.777344e-03 0.000000e+00
 0.000000e+00 0.000000e+00 0.000000e+00
 3.906121e-01 -1.943893e-01 0.000000e+00
 3.086469e-01 -3.001138e-01 0.000000e+00
 -2.177951e-02 -1.809570e-01 0.000000e+00
 -3.413442e-02 -1.953776e-01 0.000000e+00
 0.000000e+00 0.000000e+00 0.000000e+00
 2.949764e-02 -2.641784e-01 0.000000e+00
 3.144624e-02 -1.720601e-01 0.000000e+00
 3.201115e-02 -2.188127e-01 0.000000e+00
 2.057094e-02 -1.339153e-01 0.000000e+00
 0.000000e+00 0.000000e+00 0.000000e+00
 2.841475e-02 -2.546255e-01 0.000000e+00
 1.597587e-02 -1.966177e-01 0.000000e+00
 2.971597e-02 -2.043463e-02 0.000000e+00
 2.545008e-02 -8.346439e-03 0.000000e+00
 1.045518e-02 -4.822814e-03 0.000000e+00
 2.217548e-03 -1.873319e-01 0.000000e+00
 5.005434e-03 -1.939519e-01 0.000000e+00
 0.000000e+00 0.000000e+00 0.000000e+00
 4.392888e-02 -9.339913e-03 0.000000e+00
 0.000000e+00 0.000000e+00 0.000000e+00
 0.000000e+00 0.000000e+00 0.000000e+00
 1.396043e-01 -2.629099e-02 0.000000e+00
 8.221076e-02 -5.679306e-03 0.000000e+00
 9.447268e-02 -1.196260e-02 0.000000e+00
 4.644125e-03 -2.651992e-01 0.000000e+00
 1.069456e-03 -1.415811e-01 0.000000e+00
 1.290627e-03 -1.383245e-01 0.000000e+00
 0.000000e+00 0.000000e+00 0.000000e+00
 4.114306e-02 -4.245450e-02 0.000000e+00
 1.941141e-02 -2.967786e-02 0.000000e+00
 7.295885e-02 -1.224046e-02 0.000000e+00
 0.000000e+00 0.000000e+00 0.000000e+00
 9.620997e-02 -5.161272e-03 0.000000e+00
 0.000000e+00 0.000000e+00 0.000000e+00
 1.626991e-01 -7.024031e-03 0.000000e+00
 1.476226e-01 -8.345800e-03 0.000000e+00
 0.000000e+00 0.000000e+00 0.000000e+00
 2.774408e-01 -5.141618e-02 0.000000e+00
 2.326475e-01 -4.071827e-02 0.000000e+00
 2.589243e-01 -7.390713e-02 0.000000e+00
 1.505512e-01 -2.492433e-03 0.000000e+00
 1.425887e-01 -3.515954e-03 0.000000e+00
 0.000000e+00 0.000000e+00 0.000000e+00
 2.738922e-01 -1.076156e-02 0.000000e+00
 2.069870e-01 -3.620741e-03 0.000000e+00
 2.558772e-01 2.106483e-02 0.000000e+00
 1.909283e-01 9.063249e-03 0.000000e+00
 1.303440e-01 1.503435e-02 0.000000e+00
 7.412800e-03 -2.460895e-01 0.000000e+00
 1.524092e-03 -1.226684e-01 0.000000e+00
 2.858653e-03 -1.837448e-01 0.000000e+00
 1.930726e-03 -1.176436e-01 0.000000e+00
 0.000000e+00 0.000000e+00 0.000000e+00
 1.559440e-01 -2.567411e-01 0.000000e+00
 1.914377e-01 -2.284582e-01 0.000000e+00
 1.532411e-01 -2.231782e-01 0.000000e+00
 2.502325e-02 -2.664216e-01 0.000000e+00
 8.086144e-02 -3.184632e-01 0.000000e+00
 0.000000e+00 0.000000e+00 0.000000e+00
 3.541095e-02 -3.495406e-01 0.000000e+00
 1.004445e-02 -2.164002e-01 0.000000e+00
 1.136972e-02 -2.973699e-01 0.000000e+00
 2.950852e-03 -1.726593e-01 0.000000e+00
 5.388531e-03 -2.006624e-01 0.000000e+00
 1.763332e-03 -1.677927e-01 0.000000e+00
 0.000000e+00 0.000000e+00 0.000000e+00
 8.338304e-03 -3.615425e-01 0.000000e+00
 1.500981e-02 -3.365837e-01 0.000000e+00
 1.106946e-02 -3.459808e-01 0.000000e+00
 2.514632e-01 7.116750e-03 0.000000e+00
 1.176548e-01 1.900087e-03 0.000000e+00
 2.728943e-01 3.061098e-02 0.000000e+00
 1.643462e-01 3.259047e-02 0.000000e+00
 2.228721e-01 3.548990e-02 0.000000e+00
 2.949807e-01 -6.331025e-03 0.000000e+00
 1.789679e-01 -1.020826e-03 0.000000e+00
 2.122704e-01 -2.404776e-03 0.000000e+00
 2.931176e-01 2.208674e-03 0.000000e+00
 1.545818e-01 1.064003e-03 0.000000e+00
 2.149861e-01 1.909101e-03 0.000000e+00
 2.757020e-01 -2.821596e-03 0.000000e+00
 1.699635e-01 -8.006935e-04 0.000000e+00
 0.000000e+00 0.000000e+00 0.000000e+00
 1.529489e-01 1.215751e-03 0.000000e+00
 0.000000e+00 0.000000e+00 0.000000e+00
 3.114127e-03 -1.140785e-01 0.000000e+00
 2.581290e-03 -1.217420e-01 0.000000e+00
 0.000000e+00 0.000000e+00 0.000000e+00
 1.890760e-02 -2.476791e-01 0.000000e+00
 1.609703e-02 -2.629500e-01 0.000000e+00
 2.738461e-02 -2.917948e-01 0.000000e+00
 -7.149870e-03 -1.995860e-01 0.000000e+00
 -4.508167e-04 -1.938656e-01 0.000000e+00
 0.000000e+00 0.000000e+00 0.000000e+00
 2.726009e-02 -1.838722e-01 0.000000e+00
 6.007915e-03 -9.502455e-02 0.000000e+00
 1.148979e-02 -1.459031e-01 0.000000e+00
 3.739000e-01 -6.046871e-03 0.000000e+00
 3.718314e-01 -3.922793e-03 0.000000e+00
 3.658794e-01 -8.890752e-03 0.000000e+00
 1.813749e-01 1.476800e-03 0.000000e+00
 1.783095e-01 1.644114e-03 0.000000e+00
 0.000000e+00 0.000000e+00 0.000000e+00
 6.249137e-03 -8.087561e-02 0.000000e+00
 0.000000e+00 0.000000e+00 0.000000e+00
 1.104913e-02 -6.754337e-02 0.000000e+00
 1.082278e-02 -8.658775e-02 0.000000e+00
 0.000000e+00 0.000000e+00 0.000000e+00
 -7.373925e-04 -3.740938e-01 0.000000e+00
 3.424753e-03 -3.728810e-01 0.000000e+00
 1.708147e-03 -3.725860e-01 0.000000e+00
 -1.537236e-02 -3.362260e-01 0.000000e+00
 -6.209466e-03 -3.645006e-01 0.000000e+00
 -8.983002e-03 -3.547249e-01 0.000000e+00
 2.955076e-01 -2.708185e-02 0.000000e+00
 2.263233e-01 -3.476850e-02 0.000000e+00
 1.825105e-01 -3.751485e-03 0.000000e+00
 1.778533e-01 -1.221124e-03 0.000000e+00
 0.000000e+00 0.000000e+00 0.000000e+00
 3.840296e-01 -1.635172e-02 0.000000e+00
 3.809942e-01 -2.630692e-02 0.000000e+00
 3.903562e-01 -2.145917e-02 0.000000e+00
 3.721346e-01 9.760500e-04 0.000000e+00
 3.703608e-01 -1.265225e-03 0.000000e+00
 -1.939700e-02 -3.269379e-01 0.000000e+00
 -2.665811e-02 -2.919956e-01 0.000000e+00
 -3.173144e-02 -2.307770e-01 0.000000e+00
 2.042970e-01 -1.266626e-01 0.000000e+00
 1.760990e-01 -1.526524e-01 0.000000e+00
 2.169384e-01 -1.665946e-01 0.000000e+00
 1.378728e-01 -1.421056e-01 0.000000e+00
 1.453685e-01 -1.809959e-01 0.000000e+00
 5.434990e-02 -3.571783e-01 0.000000e+00
 3.886195e-02 -3.668469e-01 0.000000e+00
 5.167790e-02 -3.731980e-01 0.000000e+00
 3.349991e-01 -1.527340e-02 0.000000e+00
 3.439052e-01 -1.574052e-02 0.000000e+00
 3.954020e-01 -2.393118e-02 0.000000e+00
 3.940754e-01 -2.777619e-02 0.000000e+00
 3.981186e-01 -3.562032e-02 0.000000e+00
 3.485550e-01 1.336399e-02 0.000000e+00
 3.680440e-01 5.960719e-03 0.000000e+00
 3.510390e-01 1.095824e-02 0.000000e+00
 2.383272e-02 -3.884040e-01 0.000000e+00
 3.317577e-02 -3.869173e-01 0.000000e+00
 2.683541e-02 -3.837376e-01 0.000000e+00
 -1.209334e-02 -3.410668e-01 0.000000e+00
 -1.714757e-02 -2.886832e-01 0.000000e+00
 3.775510e-01 -1.015415e-01 0.000000e+00
 3.619063e-01 -1.374853e-01 0.000000e+00
 3.893135e-01 -1.226292e-01 0.000000e+00
 7.623774e-03 -2.424612e-02 0.000000e+00
 8.189507e-03 -4.065080e-02 0.000000e+00
 0.000000e+00 0.000000e+00 0.000000e+00
 3.521590e-01 -1.255196e-02 0.000000e+00
 6.978218e-02 -1.493558e-01 0.000000e+00
 9.900889e-02 -1.281639e-01 0.000000e+00
 6.071899e-02 -1.118405e-01 0.000000e+00
 3.779447e-01 -7.651472e-02 0.000000e+00
 3.934828e-01 -5.521687e-02 0.000000e+00
 3.784903e-01 -5.133311e-02 0.000000e+00
 3.326385e-01 -7.667473e-02 0.000000e+00
 3.406497e-01 -5.082620e-02 0.000000e+00
 3.136614e-01 -5.683258e-02 0.000000e+00
 1.536918e-02 -3.358692e-01 0.000000e+00
 2.417968e-02 -2.940508e-01 0.000000e+00
 7.291653e-04 -3.796227e-01 0.000000e+00
 4.229981e-03 -3.811561e-01 0.000000e+00
 4.898778e-03 -3.828716e-01 0.000000e+00
 2.041967e-02 -3.634406e-01 0.000000e+00
 2.518589e-02 -3.758081e-01 0.000000e+00
 2.939183e-02 -3.669934e-01 0.000000e+00
 3.444864e-02 -2.494130e-01 0.000000e+00
 5.176302e-02 -2.905370e-01 0.000000e+00
 5.592188e-02 -2.645191e-01 0.000000e+00
 1.048376e-01 -3.522693e-01 0.000000e+00
 1.081321e-01 -3.140045e-01 0.000000e+00
 7.857374e-02 -3.320245e-01 0.000000e+00
 2.728008e-01 -3.575195e-01 0.000000e+00
 2.021035e-01 -3.795789e-01 0.000000e+00
 2.778891e-01 -1.025519e-02 0.000000e+00
 0.000000e+00 0.000000e+00 0.000000e+00
 3.464343e-01 1.072783e-02 0.000000e+00
 3.037880e-01 2.278133e-02 0.000000e+00
 3.639320e-01 -7.167124e-03 0.000000e+00
 3.774095e-01 -6.405925e-03 0.000000e+00
 3.766330e-01 -5.876108e-03 0.000000e+00
 4.117169e-02 -3.033474e-01 0.000000e+00
 6.146786e-02 -3.136897e-01 0.000000e+00
 1.369197e-02 -3.682100e-01 0.000000e+00
 1.474100e-02 -3.593697e-01 0.000000e+00
 1.121718e-02 -3.513903e-01 0.000000e+00
 6.604617e-02 -3.856788e-01 0.000000e+00
 7.540582e-02 -3.980140e-01 0.000000e+00
 9.070359e-02 -3.775309e-01 0.000000e+00
 3.763621e-01 2.048864e-03 0.000000e+00
 3.800610e-01 -2.889305e-03 0.000000e+00
 3.807883e-01 4.076231e-05 0.000000e+00
 3.501029e-01 -1.574191e-02 0.000000e+00
 3.633994e-01 -1.240918e-02 0.000000e+00
 3.300556e-01 -9.162652e-03 0.000000e+00
 3.869766e-01 -6.027623e-03 0.000000e+00
 3.843887e-01 -2.859677e-03 0.000000e+00
 3.858313e-01 -6.764500e-03 0.000000e+00
 2.778926e-01 -1.434037e-01 0.000000e+00
 3.066248e-01 -1.121674e-01 0.000000e+00
 2.758742e-01 -1.099227e-01 0.000000e+00
 4.081365e-01 -9.300239e-02 0.000000e+00
 4.032153e-01 -1.474319e-01 0.000000e+00
 1.510929e-01 -7.387008e-02 0.000000e+00
 1.943328e-01 -8.690185e-02 0.000000e+00
 1.709751e-01 -4.939406e-02 0.000000e+00
 1.622165e-01 -1.874458e-02 0.000000e+00
 1.185678e-01 -6.333627e-03 0.000000e+00
 1.168607e-01 -2.063983e-01 0.000000e+00
 8.545727e-02 -1.872892e-01 0.000000e+00
 9.171211e-02 -2.257643e-01 0.000000e+00
 3.603814e-01 -4.684663e-02 0.000000e+00
 3.414953e-01 -3.553122e-02 0.000000e+00
 7.001895e-03 -3.810062e-01 0.000000e+00
 1.038820e-02 -3.844802e-01 0.000000e+00
 1.148202e-02 -3.764939e-01 0.000000e+00
 1.259862e-02 -3.862414e-01 0.000000e+00
 7.776156e-03 -3.788968e-01 0.000000e+00
 1.554893e-02 -3.261936e-01 0.000000e+00
 2.316632e-02 -3.317045e-01 0.000000e+00
 1.477669e-02 -2.980674e-01 0.000000e+00
 6.851321e-03 -3.749547e-01 0.000000e+00
 8.753849e-02 -3.286618e-02 0.000000e+00
 7.305361e-02 -5.706597e-02 0.000000e+00
 1.120665e-01 -6.425943e-02 0.000000e+00
 3.039069e-02 -8.465814e-02 0.000000e+00
 5.411836e-02 -7.420667e-02 0.000000e+00
 9.635293e-03 -3.388162e-01 0.000000e+00
 7.904677e-03 -3.188026e-01 0.000000e+00
 1.168623e-02 -3.734596e-01 0.000000e+00
 1.079627e-02 -3.624576e-01 0.000000e+00
 9.673818e-03 -3.729451e-01 0.000000e+00
 3.673989e-01 -2.480725e-02 0.000000e+00
 3.417708e-01 -2.045773e-02 0.000000e+00
 2.383226e-01 -1.612066e-02 0.000000e+00
 2.816654e-01 -3.178483e-02 0.000000e+00
 2.893132e-01 -2.169799e-02 0.000000e+00
 6.072302e-02 -3.972954e-01 0.000000e+00
 9.702265e-02 -4.057074e-01 0.000000e+00
 3.652876e-01 -2.229668e-01 0.000000e+00
 1.721983e-01 -7.202657e-04 0.000000e+00
 0.000000e+00 0.000000e+00 0.000000e+00
 3.187264e-01 -2.057318e-02 0.000000e+00
 9.590940e-02 -2.491444e-01 0.000000e+00
 7.543376e-02 -2.726243e-01 0.000000e+00
 9.872098e-02 -2.753680e-01 0.000000e+00
 2.659709e-02 -1.354801e-01 0.000000e+00
 3.949252e-02 -1.804280e-01 0.000000e+00
 4.953244e-02 -1.615722e-01 0.000000e+00
 2.593897e-03 -3.666789e-01 0.000000e+00
 -5.004308e-03 -3.506506e-01 0.000000e+00
 -1.667677e-04 -3.308911e-01 0.000000e+00
 2.346004e-01 -2.484228e-01 0.000000e+00
 2.157575e-01 -2.888516e-01 0.000000e+00
 2.624608e-01 -2.685296e-01 0.000000e+00
 3.005585e-02 -3.520402e-01 0.000000e+00
 3.168219e-02 -3.334530e-01 0.000000e+00
 3.922961e-03 -9.533249e-02 0.000000e+00
 3.383541e-03 -1.050729e-01 0.000000e+00
 0.000000e+00 0.000000e+00 0.000000e+00
 4.451469e-02 -3.398377e-01 0.000000e+00
 6.132392e-02 -3.445511e-01 0.000000e+00
 1.724109e-01 -3.020402e-01 0.000000e+00
 1.373716e-01 -2.883186e-01 0.000000e+00
 5.340110e-02 -2.390194e-01 0.000000e+00
 6.907180e-02 -2.250608e-01 0.000000e+00
 4.850264e-02 -2.154984e-01 0.000000e+00
 3.714584e-01 -7.310543e-03 0.000000e+00
 3.820150e-01 -6.883718e-03 0.000000e+00
 3.666878e-01 -1.457639e-02 0.000000e+00
 3.476833e-01 -3.660035e-03 0.000000e+00
 3.839566e-01 -1.300879e-02 0.000000e+00
 3.337978e-01 -1.295067e-01 0.000000e+00
 3.254701e-01 -9.840686e-02 0.000000e+00
 4.037174e-01 -5.597880e-02 0.000000e+00
 3.949037e-01 -4.916399e-02 0.000000e+00
 2.329810e-01 -9.612269e-02 0.000000e+00
 3.105819e-01 -2.587438e-01 0.000000e+00
 2.860265e-01 -3.132651e-01 0.000000e+00
 0.000000e+00 0.000000e+00 0.000000e+00
 4.443126e-02 -3.882858e-01 0.000000e+00
 3.799440e-02 -3.925974e-01 0.000000e+00
 2.551586e-02 -3.882577e-01 0.000000e+00
 3.353921e-02 -3.896385e-01 0.000000e+00
 1.455094e-02 -3.833437e-01 0.000000e+00
 1.414530e-02 -3.868555e-01 0.000000e+00
 3.634126e-01 2.048113e-03 0.000000e+00
 3.783013e-01 -2.724291e-03 0.000000e+00
 3.504079e-01 9.592530e-04 0.000000e+00
 3.914694e-01 -1.497058e-02 0.000000e+00
 3.872541e-01 -1.094100e-02 0.000000e+00
 3.883169e-01 -9.325573e-03 0.000000e+00
 3.346112e-01 -5.530063e-03 0.000000e+00
 3.403654e-01 -9.349325e-03 0.000000e+00
 2.746763e-01 1.174534e-03 0.000000e+00
 3.336585e-01 1.388380e-04 0.000000e+00
 3.760166e-01 2.417523e-03 0.000000e+00
 1.258226e-01 -1.037715e-01 0.000000e+00
 1.309545e-01 -4.082762e-01 0.000000e+00
 1.446023e-01 -3.983171e-01 0.000000e+00
 7.382300e-03 -3.247499e-01 0.000000e+00
 1.353414e-02 -3.431188e-01 0.000000e+00
 1.265604e-02 -3.653096e-01 0.000000e+00
 2.169239e-03 -2.526805e-01 0.000000e+00
 3.735303e-02 -3.830254e-01 0.000000e+00
 2.140391e-02 -3.573343e-01 0.000000e+00
 1.876446e-01 -3.678203e-02 0.000000e+00
 2.081561e-01 -2.252353e-02 0.000000e+00
 2.067930e-01 -3.841628e-02 0.000000e+00
 7.067559e-03 -2.018821e-01 0.000000e+00
 1.292789e-02 -2.686958e-01 0.000000e+00
 5.686384e-03 -2.611130e-01 0.000000e+00
 7.106476e-03 -2.984421e-01 0.000000e+00
 1.020439e-02 -3.127862e-01 0.000000e+00
 1.931963e-02 -3.805934e-01 0.000000e+00
 1.451639e-02 -3.774220e-01 0.000000e+00
 1.556834e-02 -3.455376e-01 0.000000e+00
 3.760077e-01 -1.308468e-02 0.000000e+00
 3.671245e-01 -9.281652e-03 0.000000e+00
 3.314634e-01 -4.613701e-03 0.000000e+00
 3.204746e-01 -4.661880e-03 0.000000e+00
 3.554536e-01 -6.518889e-03 0.000000e+00
 -6.049218e-03 -3.662816e-01 0.000000e+00
 -2.659770e-03 -3.750174e-01 0.000000e+00
 1.220558e-02 -2.915283e-01 0.000000e+00
 1.178138e-02 -3.402980e-01 0.000000e+00
 1.330151e-01 -3.688619e-01 0.000000e+00
 1.737213e-01 -3.644691e-01 0.000000e+00
 2.257484e-01 -3.566429e-01 0.000000e+00
 1.881309e-01 -3.281663e-01 0.000000e+00
 3.380773e-01 -2.299008e-02 0.000000e+00
 3.570368e-01 -8.593510e-02 0.000000e+00
 3.568361e-01 5.603625e-03 0.000000e+00
 3.760942e-01 -3.652819e-02 0.000000e+00
 2.604507e-01 -1.767585e-01 0.000000e+00