<?xml version="1.0"?>
<VTKFile type="UnstructuredGrid"  version="0.1"  >
<UnstructuredGrid>
<Piece  NumberOfPoints="505" NumberOfCells="928">
<Points>
<DataArray  type="Float32"  NumberOfComponents="3"  format="ascii">
0 0 0
1 0 0
0 1 0
1 0.5 0
0.5 0.5 0
0.5 1 0
0.1 0 0
0.2 0 0
0.3 0 0
0.4 0 0
0.5 0 0
0.6 0 0
0.7 0 0
0.8 0 0
0.9 0 0
0 0.9 0
0 0.8 0
0 0.7 0
0 0.6 0
0 0.5 0
0 0.4 0
0 0.3 0
0 0.2 0
0 0.1 0
0.9 0.5 0
0.8 0.5 0
0.7 0.5 0
0.6 0.5 0
0.5 0.6 0
0.5 0.7 0
0.5 0.8 0
0.5 0.9 0
0.1 1 0
0.2 1 0
0.3 1 0
0.4 1 0
1 0.1 0
1 0.2 0
1 0.3 0
1 0.4 0
0.300178 0.296564 0
0.247566 0.664879 0
0.639694 0.259804 0
0.06564 0.06472 0
0.04439 0.954144 0
0.932418 0.064715 0
0.951013 0.456419 0
0.437622 0.939659 0
0.195334 0.464441 0
0.483382 0.329596 0
0.834786 0.236295 0
0.307228 0.81139 0
0.178229 0.173372 0
0.366998 0.134199 0
0.547485 0.14214 0
0.124832 0.74927 0
0.160163 0.896658 0
0.342556 0.535243 0
0.147651 0.342018 0
0.729803 0.127878 0
0.725981 0.357775 0
0.121369 0.600441 0
0.372954 0.70814 0
0.908503 0.151525 0
0.89851 0.333305 0
0.556275 0.400898 0
0.259184 0.092178 0
0.46329 0.194362 0
0.423773 0.869712 0
0.22823 0.818162 0
0.081292 0.144905 0
0.082979 0.831935 0
0.549999 0.065419 0
0.371537 0.407588 0
0.642628 0.097865 0
0.459835 0.086595 0
0.108565 0.418567 0
0.273082 0.902112 0
0.256598 0.556659 0
0.11951 0.509541 0
0.234147 0.370527 0
0.097453 0.253261 0
0.638438 0.342389 0
0.554656 0.224779 0
0.373432 0.237603 0
0.339663 0.62579 0
0.27079 0.747786 0
0.733958 0.266592 0
0.928527 0.244458 0
0.853116 0.071497 0
0.818426 0.404817 0
0.280194 0.200604 0
0.417859 0.565185 0
0.147241 0.079056 0
0.389149 0.789957 0
0.42808 0.654642 0
0.343469 0.059202 0
0.086765 0.684153 0
0.162043 0.675011 0
0.809252 0.14201 0
0.364337 0.928607 0
0.077532 0.916553 0
0.159064 0.807906 0
0.302124 0.454032 0
0.205909 0.272176 0
0.449664 0.407415 0
0.66041 0.423241 0
0.562201 0.303789 0
0.802658 0.320211 0
0.614551 0.182931 0
0.390944 0.331035 0
0.687136 0.18846 0
0.070577 0.342498 0
0.741087 0.437361 0
0.176989 0.547528 0
0.710251 0.07409 0
0.192845 0.608574 0
0.171114 0.398277 0
0.058959 0.753084 0
0.904 0.425508 0
0.438039 0.730373 0
0.057223 0.475897 0
0.058502 0.552106 0
0.330493 0.750997 0
0.312295 0.699131 0
0.684882 0.307111 0
0.053312 0.627311 0
0.198798 0.743695 0
0.392326 0.069953 0
0.351519 0.860283 0
0.397134 0.477694 0
0.319385 0.371198 0
0.767351 0.069505 0
0.441954 0.271171 0
0.759504 0.192785 0
0.855661 0.457701 0
0.500847 0.264652 0
0.916209 0.0323575 0
0.966209 0.0323575 0
0.95 0 0
0.578137 0.450449 0
0.528137 0.450449 0
0.55 0.5 0
0.03282 0.08236 0
0.03282 0.03236 0
0 0.05 0
0.502969 0.404157 0
0.474832 0.453708 0
0.468811 0.91983 0
0.468811 0.96983 0
0.5 0.95 0
0.072195 0.977072 0
0.022195 0.977072 0
0.05 1 0
0.022195 0.927072 0
0 0.95 0
0.060961 0.935348 0
0.038766 0.908276 0
0.106441 0.071888 0
0.123621 0.039528 0
0.08282 0.03236 0
0.0414895 0.815967 0
0.0414895 0.865968 0
0 0.85 0
0.173621 0.039528 0
0.15 0 0
0.05 0 0
0.301327 0.07569 0
0.321735 0.029601 0
0.279592 0.046089 0
0.070969 0.792509 0
0.0294795 0.776542 0
0.0294795 0.726542 0
0 0.75 0
0.114267 0.111981 0
0.073466 0.104813 0
0.229592 0.046089 0
0.25 0 0
0.371735 0.029601 0
0.35 0 0
0.479917 0.0432975 0
0.429918 0.0432975 0
0.45 0 0
0.461562 0.140479 0
0.413416 0.110397 0
0.415144 0.16428 0
0.574999 0.0327095 0
0.525 0.0327095 0
0.55 0 0
0.596313 0.081642 0
0.621314 0.0489325 0
0.927507 0.440964 0
0.902 0.462754 0
0.925507 0.47821 0
0.0700385 0.655732 0
0.026656 0.663655 0
0.0433825 0.692076 0
0.026656 0.613655 0
0 0.65 0
0.276766 0.370862 0
0.309781 0.333881 0
0.267162 0.333545 0
0.458929 0.582593 0
0.458929 0.532593 0
0.5 0.55 0
0.422969 0.609913 0
0.46404 0.627321 0
0.43306 0.692508 0
0.46902 0.715186 0
0.46404 0.677321 0
0.46902 0.765186 0
0.5 0.75 0
0.180082 0.948329 0
0.130082 0.948329 0
0.15 1 0
0.87983 0.441605 0
0.87783 0.478851 0
0.975507 0.42821 0
0.975507 0.47821 0
1 0.45 0
0.676439 0.0859775 0
0.705125 0.037045 0
0.671314 0.0489325 0
0.779756 0.421089 0
0.770544 0.46868 0
0.809213 0.452408 0
0.738801 0.0717975 0
0.733675 0.0347525 0
0.95 0.5 0
0.720544 0.46868 0
0.75 0.5 0
0.029251 0.526053 0
0.029251 0.576053 0
0 0.55 0
0.089006 0.530824 0
0.0899355 0.576273 0
0.12044 0.554991 0
0.461886 0.884856 0
0.461886 0.834856 0
0.5 0.85 0
0.089571 0.380533 0
0.0352885 0.371249 0
0.0542825 0.409284 0
0.918515 0.197991 0
0.964263 0.222229 0
0.954252 0.175762 0
0.630205 0.46162 0
0.680205 0.46162 0
0.65 0.5 0
0.0352885 0.321249 0
0 0.35 0
0.0487265 0.226631 0
0.0487265 0.276631 0
0 0.25 0
0.286541 0.951056 0
0.236541 0.951056 0
0.25 1 0
0.382169 0.964303 0
0.332168 0.964303 0
0.35 1 0
0.966209 0.0823575 0
1 0.05 0
0.876558 0.0357485 0
0.826558 0.0357485 0
0.85 0 0
0.710547 0.227526 0
0.663415 0.224132 0
0.686826 0.263198 0
0.964263 0.272229 0
1 0.25 0
0.40098 0.934133 0
0.418811 0.96983 0
0.45 1 0
0.326813 0.219104 0
0.290186 0.248584 0
0.336805 0.267084 0
0.243052 0.23639 0
0.253043 0.28437 0
0.224721 0.582616 0
0.220205 0.636726 0
0.252082 0.610769 0
0.92046 0.10812 0
0.954252 0.125762 0
0.66166 0.32475 0
0.662288 0.283458 0
0.639066 0.301096 0
0.949255 0.366653 0
0.949255 0.316653 0
1 0.35 0
0.291542 0.723459 0
0.27993 0.682005 0
0.259178 0.706333 0
0.394055 0.89916 0
0.430698 0.904686 0
0.531524 0.28422 0
0.492115 0.297124 0
0.522791 0.316692 0
0.040646 0.122453 0
0.040646 0.172453 0
0 0.15 0
1 0.15 0
0.151681 0.262718 0
0.192069 0.222774 0
0.137841 0.213317 0
0.558428 0.264284 0
0.600947 0.281797 0
0.597175 0.242291 0
0.508973 0.20957 0
0.551071 0.183459 0
0.505387 0.168251 0
0.118847 0.906605 0
0.088766 0.958276 0
0.3123 0.881198 0
0.329373 0.835836 0
0.290155 0.856751 0
0.18042 0.709353 0
0.223182 0.704287 0
0.204805 0.669945 0
0.114037 0.464054 0
0.157422 0.486991 0
0.15195 0.441504 0
0.279361 0.505346 0
0.248729 0.459236 0
0.225966 0.51055 0
0.423399 0.442555 0
0.448567 0.488847 0
0.892767 0.068106 0
0.65 0 0
0.901255 0.379406 0
0.952 0.412754 0
0.858877 0.146767 0
0.822019 0.189153 0
0.871644 0.19391 0
0.14825 0.528535 0
0.186162 0.505985 0
0.178931 0.775801 0
0.161815 0.746482 0
0.141948 0.778588 0
0.29813 0.591225 0
0.34111 0.580516 0
0.299577 0.545951 0
0.913519 0.288882 0
0.881657 0.240376 0
0.866648 0.2848 0
0.664882 0.143162 0
0.708469 0.158169 0
0.686215 0.112871 0
0.768308 0.293401 0
0.818722 0.278253 0
0.784372 0.251443 0
0.407693 0.254387 0
0.452622 0.232766 0
0.418361 0.215983 0
0.559238 0.352343 0
0.519829 0.365247 0
0.269689 0.146391 0
0.323596 0.167402 0
0.313091 0.113188 0
0.367897 0.0645775 0
0.396163 0.0349765 0
0.220028 0.321352 0
0.17678 0.307097 0
0.190899 0.356272 0
0.584604 0.203855 0
0.581018 0.162535 0
0.250656 0.860137 0
0.267729 0.814776 0
0.359821 0.770477 0
0.31886 0.781193 0
0.348189 0.800674 0
0.124404 0.679582 0
0.141706 0.637726 0
0.104067 0.642297 0
0.216622 0.899385 0
0.203213 0.085617 0
0.162735 0.126214 0
0.218707 0.132775 0
0.0893725 0.199083 0
0.129761 0.159139 0
0.121022 0.819921 0
0.103905 0.790602 0
0.193647 0.813034 0
0.159614 0.852282 0
0.194196 0.85741 0
0.650843 0.185696 0
0.628589 0.140398 0
0.504917 0.076007 0
0.50366 0.114367 0
0.548742 0.103779 0
0.378761 0.595487 0
0.380208 0.550214 0
0.466523 0.368506 0
0.783675 0.0347525 0
0.75 0 0
0.595056 0.120002 0
0.20263 0.384402 0
0.183224 0.431359 0
0.214741 0.417484 0
0.084015 0.29788 0
0.109114 0.342258 0
0.122552 0.29764 0
0.370334 0.82512 0
0.387646 0.864998 0
0.406461 0.829835 0
0.355164 0.351116 0
0.345461 0.389393 0
0.38124 0.369312 0
0.177444 0.641792 0
0.157107 0.604507 0
0.0286115 0.437949 0
0.0286115 0.487949 0
0 0.45 0
0.184917 0.578051 0
0.216794 0.552094 0
0.310754 0.412615 0
0.268135 0.41228 0
0.13984 0.408422 0
0.159382 0.370147 0
0.128108 0.380293 0
0.784378 0.167398 0
0.797145 0.21454 0
0.649424 0.382815 0
0.693196 0.390508 0
0.682209 0.350082 0
0.471401 0.267911 0
0.482069 0.229507 0
0.600319 0.323089 0
0.597356 0.371644 0
0.370215 0.185901 0
0.420304 0.369225 0
0.410601 0.407502 0
0.5 0.65 0
0.293615 0.645334 0
0.325979 0.66246 0
0.342624 0.703635 0
0.356309 0.666965 0
0.24951 0.782974 0
0.289009 0.779588 0
0.810542 0.362514 0
0.76432 0.338993 0
0.772204 0.381296 0
0.70942 0.286852 0
0.705431 0.332443 0
0.729969 0.312184 0
0.831184 0.106754 0
0.88081 0.111511 0
0.700748 0.430301 0
0.733534 0.397568 0
0.850584 0.326758 0
0.229212 0.186988 0
0.407496 0.52144 0
0.369845 0.506468 0
0.413594 0.760165 0
0.405497 0.719256 0
0.381051 0.749049 0
0.444574 0.794979 0
0.383872 0.640216 0
0.400517 0.681391 0
0.355233 0.0967005 0
0.42608 0.078274 0
0.379662 0.102076 0
0.055907 0.589708 0
0.0873405 0.613876 0
0.072862 0.718619 0
0.0918955 0.751177 0
0.105798 0.716711 0
0.234794 0.74574 0
0.213514 0.780928 0
0.143437 0.712141 0
0.72332 0.190623 0
0.744653 0.160332 0
0.788301 0.105758 0
0.748577 0.0986915 0
0.769527 0.134944 0
0.357928 0.894445 0
0.318709 0.915359 0
0.0802555 0.874244 0
0.121571 0.864297 0
0.32234 0.494638 0
0.349629 0.465863 0
0.384335 0.442641 0
0.336831 0.43081 0
0.608343 0.412069 0
0.527752 0.244716 0
0.858468 0.369061 0
0.627123 0.221367 0
0.382188 0.284319 0
0.345561 0.3138 0
0.437163 0.330315 0
0.746731 0.229689 0
0.149179 0.573985 0
0.720027 0.100984 0
0.810234 0.070501 0
0.861213 0.415162 0
0.827831 0.478851 0
0.85 0.5 0
0.082894 0.447232 0
0.0883665 0.492719 0
0.0578625 0.514002 0
0.300642 0.749391 0
0.351723 0.729569 0
0.321394 0.725064 0
0.416449 0.301103 0
0.462668 0.300384 0
0.837044 0.431259 0
</DataArray>
</Points>
<Cells>
<DataArray  type="UInt32"  Name="connectivity"  format="ascii">
1 138 139 
14 137 139 
45 137 138 
137 138 139 
4 141 142 
27 140 142 
65 140 141 
140 141 142 
0 144 145 
23 143 145 
43 143 144 
143 144 145 
4 141 147 
65 141 146 
105 146 147 
141 146 147 
5 149 150 
31 148 150 
47 148 149 
148 149 150 
2 152 153 
32 151 153 
44 151 152 
151 152 153 
2 152 155 
15 154 155 
44 152 154 
152 154 155 
15 154 157 
44 154 156 
101 156 157 
154 156 157 
6 159 160 
43 158 160 
93 158 159 
158 159 160 
15 162 163 
16 161 163 
71 161 162 
161 162 163 
6 159 165 
7 164 165 
93 159 164 
159 164 165 
[...]
<PointData  Vectors="u"> 
<DataArray  type="Float32"  Name="u"  NumberOfComponents="3" format="ascii">
 0.000000e+00 0.000000e+00 0.000000e+00
 1.486706e-01 -3.866386e-02 0.000000e+00
 3.502204e-02 -1.523504e-01 0.000000e+00
 1.327761e-01 3.260338e-02 0.000000e+00
 0.000000e+00 0.000000e+00 0.000000e+00
 -4.075611e-02 -1.743668e-01 0.000000e+00
 0.000000e+00 0.000000e+00 0.000000e+00
 0.000000e+00 0.000000e+00 0.000000e+00
 0.000000e+00 0.000000e+00 0.000000e+00
 0.000000e+00 0.000000e+00 0.000000e+00
 0.000000e+00 0.000000e+00 0.000000e+00
 0.000000e+00 0.000000e+00 0.000000e+00
 0.000000e+00 0.000000e+00 0.000000e+00
 0.000000e+00 0.000000e+00 0.000000e+00
 0.000000e+00 0.000000e+00 0.000000e+00
 0.000000e+00 0.000000e+00 0.000000e+00
 0.000000e+00 0.000000e+00 0.000000e+00
 0.000000e+00 0.000000e+00 0.000000e+00
 0.000000e+00 0.000000e+00 0.000000e+00
 0.000000e+00 0.000000e+00 0.000000e+00
 0.000000e+00 0.000000e+00 0.000000e+00
 0.000000e+00 0.000000e+00 0.000000e+00
 0.000000e+00 0.000000e+00 0.000000e+00
 0.000000e+00 0.000000e+00 0.000000e+00
 0.000000e+00 0.000000e+00 0.000000e+00
 0.000000e+00 0.000000e+00 0.000000e+00
 0.000000e+00 0.000000e+00 0.000000e+00
 0.000000e+00 0.000000e+00 0.000000e+00
 0.000000e+00 0.000000e+00 0.000000e+00
 0.000000e+00 0.000000e+00 0.000000e+00
 0.000000e+00 0.000000e+00 0.000000e+00
 0.000000e+00 0.000000e+00 0.000000e+00
 2.873284e-02 -3.446606e-01 0.000000e+00
 8.639135e-03 -4.474317e-01 0.000000e+00
 -4.455421e-03 -4.552633e-01 0.000000e+00
 -2.787085e-02 -3.611995e-01 0.000000e+00
 3.655493e-01 -2.772466e-02 0.000000e+00
 4.549283e-01 -5.791450e-03 0.000000e+00
 4.491642e-01 8.883012e-03 0.000000e+00
 3.514023e-01 2.962773e-02 0.000000e+00
 2.225559e-01 -2.496430e-01 0.000000e+00
 4.294566e-02 -4.713046e-01 0.000000e+00
 4.923583e-01 -3.694829e-02 0.000000e+00
 9.663200e-03 -1.007343e-02 0.000000e+00
 4.220026e-02 -2.271482e-01 0.000000e+00
 3.011299e-01 -2.419490e-02 0.000000e+00
 2.184034e-01 3.456587e-02 0.000000e+00
 -3.825653e-02 -2.982966e-01 0.000000e+00
 8.866630e-02 -3.654823e-01 0.000000e+00
 4.479966e-01 -2.194562e-01 0.000000e+00
 4.793958e-01 4.134648e-03 0.000000e+00
 1.022248e-02 -4.753377e-01 0.000000e+00
 9.756223e-02 -1.079162e-01 0.000000e+00
 2.608933e-01 -7.578489e-02 0.000000e+00
 3.977853e-01 -4.210086e-02 0.000000e+00
 1.318804e-02 -3.919679e-01 0.000000e+00
 1.496006e-02 -4.343299e-01 0.000000e+00
 1.268088e-01 -4.809004e-01 0.000000e+00
 7.091049e-02 -2.375348e-01 0.000000e+00
 4.255956e-01 -2.992354e-03 0.000000e+00
 4.302001e-01 8.689039e-03 0.000000e+00
 2.629811e-02 -3.541247e-01 0.000000e+00
 2.525559e-02 -4.461790e-01 0.000000e+00
 4.444730e-01 -7.736779e-03 0.000000e+00
 4.442370e-01 1.397182e-02 0.000000e+00
 4.121148e-01 -1.007432e-01 0.000000e+00
 1.408463e-01 -4.506092e-02 0.000000e+00
 3.766831e-01 -1.068637e-01 0.000000e+00
 -1.041262e-02 -3.369043e-01 0.000000e+00
 1.358139e-02 -4.716331e-01 0.000000e+00
 2.439072e-02 -5.038661e-02 0.000000e+00
 9.488155e-03 -3.224205e-01 0.000000e+00
 2.726359e-01 -1.019713e-02 0.000000e+00
 2.774975e-01 -3.938984e-01 0.000000e+00
 3.687744e-01 -8.448996e-03 0.000000e+00
 2.791489e-01 -2.863687e-02 0.000000e+00
 3.857487e-02 -2.486324e-01 0.000000e+00
 2.708264e-03 -4.706547e-01 0.000000e+00
 8.646203e-02 -4.515158e-01 0.000000e+00
 3.652632e-02 -3.145557e-01 0.000000e+00
 1.429370e-01 -3.110233e-01 0.000000e+00
 3.604211e-02 -1.283472e-01 0.000000e+00
 4.680843e-01 -2.741785e-02 0.000000e+00
 4.566129e-01 -8.103173e-02 0.000000e+00
 3.019934e-01 -1.777602e-01 0.000000e+00
 6.110745e-02 -4.813481e-01 0.000000e+00
 2.353176e-02 -4.802696e-01 0.000000e+00
 4.872008e-01 -1.819265e-03 0.000000e+00
 4.689572e-01 3.005836e-03 0.000000e+00
 3.179209e-01 -3.484216e-03 0.000000e+00
 3.483789e-01 1.121433e-02 0.000000e+00
 1.974681e-01 -1.457460e-01 0.000000e+00
 7.677866e-02 -4.356254e-01 0.000000e+00
 5.222438e-02 -2.935141e-02 0.000000e+00
 6.872336e-03 -4.125755e-01 0.000000e+00
 2.271349e-02 -3.560329e-01 0.000000e+00
 1.607715e-01 -2.027478e-02 0.000000e+00
 1.035573e-02 -3.099799e-01 0.000000e+00
 2.658518e-02 -4.230743e-01 0.000000e+00
 4.424393e-01 -1.003248e-03 0.000000e+00
 -1.509795e-02 -4.258703e-01 0.000000e+00
 2.685462e-02 -3.158366e-01 0.000000e+00
 1.422124e-02 -4.359893e-01 0.000000e+00
 1.715723e-01 -4.177195e-01 0.000000e+00
 1.255797e-01 -2.066184e-01 0.000000e+00
 3.832931e-01 -3.542669e-01 0.000000e+00
 2.911196e-01 5.740829e-03 0.000000e+00
 4.899006e-01 -1.065117e-01 0.000000e+00
 4.600248e-01 1.096059e-02 0.000000e+00
 4.558950e-01 -3.550862e-02 0.000000e+00
 3.330321e-01 -2.881578e-01 0.000000e+00
 4.716192e-01 -1.380979e-02 0.000000e+00
 1.960573e-02 -1.463952e-01 0.000000e+00
 2.506730e-01 8.205015e-03 0.000000e+00
 5.704588e-02 -3.969888e-01 0.000000e+00
 3.219733e-01 -1.064094e-03 0.000000e+00
 4.741673e-02 -4.315707e-01 0.000000e+00
 8.395452e-02 -2.998379e-01 0.000000e+00
 4.068689e-03 -2.444183e-01 0.000000e+00
 3.079408e-01 1.729627e-02 0.000000e+00
 8.190100e-03 -3.015086e-01 0.000000e+00
 1.137496e-02 -1.764145e-01 0.000000e+00
 9.624069e-03 -2.044818e-01 0.000000e+00
 2.019692e-02 -4.723941e-01 0.000000e+00
 3.476118e-02 -4.808795e-01 0.000000e+00
 4.827955e-01 -1.050552e-02 0.000000e+00
 6.052831e-03 -2.072226e-01 0.000000e+00
 2.169029e-02 -4.586336e-01 0.000000e+00
 2.099702e-01 -2.461380e-02 0.000000e+00
 -2.611835e-03 -4.493021e-01 0.000000e+00
 2.202112e-01 -4.708215e-01 0.000000e+00
 2.316828e-01 -3.391647e-01 0.000000e+00
 3.103204e-01 2.313136e-05 0.000000e+00
 3.875634e-01 -1.914169e-01 0.000000e+00
 4.754386e-01 -1.939646e-03 0.000000e+00
 1.966586e-01 4.839384e-03 0.000000e+00
 4.419439e-01 -1.449088e-01 0.000000e+00
 1.836749e-01 -1.409775e-02 0.000000e+00
 1.964459e-01 -3.749360e-02 0.000000e+00
 0.000000e+00 0.000000e+00 0.000000e+00
 2.201519e-01 -2.016777e-02 0.000000e+00
 2.954311e-01 -1.380617e-01 0.000000e+00
 0.000000e+00 0.000000e+00 0.000000e+00
 3.393240e-03 -6.960015e-03 0.000000e+00
 6.207916e-04 -6.109275e-04 0.000000e+00
 0.000000e+00 0.000000e+00 0.000000e+00
 4.284113e-01 -2.374936e-01 0.000000e+00
 3.202651e-01 -3.429328e-01 0.000000e+00
 -2.558653e-02 -1.891192e-01 0.000000e+00
 -4.205697e-02 -2.070844e-01 0.000000e+00
 0.000000e+00 0.000000e+00 0.000000e+00
 3.791477e-02 -2.902768e-01 0.000000e+00
 3.875697e-02 -1.764975e-01 0.000000e+00
 4.076780e-02 -2.335755e-01 0.000000e+00
 2.308874e-02 -1.343079e-01 0.000000e+00
 0.000000e+00 0.000000e+00 0.000000e+00
 3.445049e-02 -2.740154e-01 0.000000e+00
 1.874322e-02 -2.014197e-01 0.000000e+00
 2.700339e-02 -1.987186e-02 0.000000e+00
 2.177969e-02 -8.157718e-03 0.000000e+00
 7.442273e-03 -3.892735e-03 0.000000e+00
 2.790352e-03 -1.898706e-01 0.000000e+00
 6.272173e-03 -1.983507e-01 0.000000e+00
 0.000000e+00 0.000000e+00 0.000000e+00
 4.162926e-02 -1.006436e-02 0.000000e+00
 0.000000e+00 0.000000e+00 0.000000e+00
 0.000000e+00 0.000000e+00 0.000000e+00
 1.575238e-01 -3.214280e-02 0.000000e+00
 8.747901e-02 -6.553620e-03 0.000000e+00
 1.015024e-01 -1.423282e-02 0.000000e+00
 5.759428e-03 -2.855138e-01 0.000000e+00
 1.227233e-03 -1.377948e-01 0.000000e+00
 1.387733e-03 -1.341045e-01 0.000000e+00
 0.000000e+00 0.000000e+00 0.000000e+00
 4.060519e-02 -4.389650e-02 0.000000e+00
 1.761601e-02 -2.705085e-02 0.000000e+00
 7.529848e-02 -1.417287e-02 0.000000e+00
 0.000000e+00 0.000000e+00 0.000000e+00
 1.046584e-01 -5.983537e-03 0.000000e+00
 0.000000e+00 0.000000e+00 0.000000e+00
 1.843628e-01 -7.788536e-03 0.000000e+00
 1.664713e-01 -9.690008e-03 0.000000e+00
 0.000000e+00 0.000000e+00 0.000000e+00
 3.428872e-01 -6.425111e-02 0.000000e+00
 2.802807e-01 -5.034669e-02 0.000000e+00
 3.199314e-01 -9.458103e-02 0.000000e+00
 1.664202e-01 -2.083867e-03 0.000000e+00
 1.583429e-01 -3.475282e-03 0.000000e+00
 0.000000e+00 0.000000e+00 0.000000e+00
 3.253592e-01 -1.024401e-02 0.000000e+00
 2.346165e-01 -2.682666e-03 0.000000e+00
 2.666549e-01 2.404520e-02 0.000000e+00
 1.874245e-01 1.023978e-02 0.000000e+00
 1.242505e-01 1.570776e-02 0.000000e+00
 8.379496e-03 -2.621222e-01 0.000000e+00
 1.615433e-03 -1.170777e-01 0.000000e+00
 3.140818e-03 -1.842177e-01 0.000000e+00
 2.047181e-03 -1.116072e-01 0.000000e+00
 0.000000e+00 0.000000e+00 0.000000e+00
 1.852874e-01 -3.267532e-01 0.000000e+00
 2.299297e-01 -2.935415e-01 0.000000e+00
 1.822790e-01 -2.848279e-01 0.000000e+00
 2.782789e-02 -2.852551e-01 0.000000e+00
 8.398312e-02 -3.449025e-01 0.000000e+00
 0.000000e+00 0.000000e+00 0.000000e+00
 4.119511e-02 -3.934624e-01 0.000000e+00
 1.158867e-02 -2.273223e-01 0.000000e+00
 1.368995e-02 -3.270485e-01 0.000000e+00
 3.489988e-03 -1.763546e-01 0.000000e+00
 6.353249e-03 -2.088552e-01 0.000000e+00
 2.036142e-03 -1.702203e-01 0.000000e+00
 0.000000e+00 0.000000e+00 0.000000e+00
 1.210274e-02 -4.389804e-01 0.000000e+00
 2.095024e-02 -3.945668e-01 0.000000e+00
 1.675477e-02 -4.125463e-01 0.000000e+00
 2.581464e-01 9.799477e-03 0.000000e+00
 1.093125e-01 2.356246e-03 0.000000e+00
 2.950108e-01 3.651513e-02 0.000000e+00
 1.594577e-01 3.660806e-02 0.000000e+00
 2.318781e-01 4.159711e-02 0.000000e+00
 3.488465e-01 -3.816890e-03 0.000000e+00
 1.938562e-01 1.476725e-04 0.000000e+00
 2.387576e-01 -9.976400e-04 0.000000e+00
 3.041221e-01 9.634594e-03 0.000000e+00
 1.402366e-01 3.159470e-03 0.000000e+00
 2.092908e-01 4.959788e-03 0.000000e+00
 3.165249e-01 -1.977245e-04 0.000000e+00
 1.830238e-01 1.869815e-04 0.000000e+00
 0.000000e+00 0.000000e+00 0.000000e+00
 1.332112e-01 3.822207e-03 0.000000e+00
 0.000000e+00 0.000000e+00 0.000000e+00
 3.222377e-03 -1.075313e-01 0.000000e+00
 2.723175e-03 -1.159188e-01 0.000000e+00
 0.000000e+00 0.000000e+00 0.000000e+00
 2.113820e-02 -2.708008e-01 0.000000e+00
 1.821530e-02 -2.892095e-01 0.000000e+00
 3.148520e-02 -3.361346e-01 0.000000e+00
 -9.020691e-03 -2.087968e-01 0.000000e+00
 -7.998660e-04 -2.006626e-01 0.000000e+00
 0.000000e+00 0.000000e+00 0.000000e+00
 2.902937e-02 -1.976894e-01 0.000000e+00
 5.715580e-03 -8.809240e-02 0.000000e+00
 1.169824e-02 -1.445457e-01 0.000000e+00
 4.653335e-01 -2.625786e-03 0.000000e+00
 4.630006e-01 -1.547306e-03 0.000000e+00
 4.518465e-01 -8.365055e-03 0.000000e+00
 1.513272e-01 4.694762e-03 0.000000e+00
 1.541796e-01 5.350769e-03 0.000000e+00
 0.000000e+00 0.000000e+00 0.000000e+00
 5.800034e-03 -7.382538e-02 0.000000e+00
 0.000000e+00 0.000000e+00 0.000000e+00
 1.040339e-02 -6.255201e-02 0.000000e+00
 1.036612e-02 -8.193777e-02 0.000000e+00
 0.000000e+00 0.000000e+00 0.000000e+00
 -1.896912e-03 -4.613574e-01 0.000000e+00
 4.662427e-03 -4.606450e-01 0.000000e+00
 2.300383e-03 -4.607703e-01 0.000000e+00
 -2.189771e-02 -3.938856e-01 0.000000e+00
 -9.890691e-03 -4.422374e-01 0.000000e+00
 -1.399460e-02 -4.262096e-01 0.000000e+00
 3.375876e-01 -3.102510e-02 0.000000e+00
 2.452686e-01 -4.095717e-02 0.000000e+00
 1.916517e-01 -3.320773e-03 0.000000e+00
 1.880730e-01 -4.613995e-04 0.000000e+00
 0.000000e+00 0.000000e+00 0.000000e+00
 4.864143e-01 -9.275077e-03 0.000000e+00
 4.842943e-01 -2.399834e-02 0.000000e+00
 4.916864e-01 -1.518993e-02 0.000000e+00
 4.608245e-01 5.638097e-03 0.000000e+00
 4.598626e-01 1.598072e-03 0.000000e+00
 -2.568351e-02 -3.762875e-01 0.000000e+00
 -3.500825e-02 -3.295092e-01 0.000000e+00
 -4.090646e-02 -2.512613e-01 0.000000e+00
 2.484241e-01 -1.636643e-01 0.000000e+00
 2.116863e-01 -1.960901e-01 0.000000e+00
 2.644162e-01 -2.161130e-01 0.000000e+00
 1.621924e-01 -1.794272e-01 0.000000e+00
 1.722252e-01 -2.300912e-01 0.000000e+00
 6.480402e-02 -4.435686e-01 0.000000e+00
 4.661039e-02 -4.549539e-01 0.000000e+00
 6.192621e-02 -4.646776e-01 0.000000e+00
 3.948622e-01 -1.536885e-02 0.000000e+00
 4.123177e-01 -1.742974e-02 0.000000e+00
 4.772710e-01 -1.800631e-02 0.000000e+00
 4.922878e-01 -2.411189e-02 0.000000e+00
 4.922705e-01 -3.540676e-02 0.000000e+00
 4.079211e-01 2.008765e-02 0.000000e+00
 4.477934e-01 1.241333e-02 0.000000e+00
 4.177927e-01 1.762739e-02 0.000000e+00
 2.887260e-02 -4.815302e-01 0.000000e+00
 4.019242e-02 -4.806999e-01 0.000000e+00
 3.253127e-02 -4.777446e-01 0.000000e+00
 -1.669530e-02 -3.954033e-01 0.000000e+00
 -2.198573e-02 -3.195804e-01 0.000000e+00
 4.719151e-01 -1.313787e-01 0.000000e+00
 4.478589e-01 -1.800075e-01 0.000000e+00
 4.760487e-01 -1.592173e-01 0.000000e+00
 6.613413e-03 -1.959446e-02 0.000000e+00
 7.359539e-03 -3.509222e-02 0.000000e+00
 0.000000e+00 0.000000e+00 0.000000e+00
 4.288584e-01 -1.498638e-02 0.000000e+00
 7.708009e-02 -1.751467e-01 0.000000e+00
 1.125752e-01 -1.560260e-01 0.000000e+00
 6.548950e-02 -1.272267e-01 0.000000e+00
 4.769011e-01 -9.670217e-02 0.000000e+00
 4.934754e-01 -6.508896e-02 0.000000e+00
 4.810498e-01 -6.046279e-02 0.000000e+00
 4.205780e-01 -9.805812e-02 0.000000e+00
 4.312145e-01 -6.177687e-02 0.000000e+00
 3.938271e-01 -7.107762e-02 0.000000e+00
 2.028442e-02 -3.899001e-01 0.000000e+00
 3.163284e-02 -3.294729e-01 0.000000e+00
 -2.576035e-04 -4.666408e-01 0.000000e+00
 4.096690e-03 -4.655997e-01 0.000000e+00
 5.229061e-03 -4.740625e-01 0.000000e+00
 2.460798e-02 -4.437900e-01 0.000000e+00
 3.046589e-02 -4.663479e-01 0.000000e+00
 3.535775e-02 -4.530391e-01 0.000000e+00
 3.851861e-02 -2.828641e-01 0.000000e+00
 5.982063e-02 -3.481453e-01 0.000000e+00
 6.393922e-02 -3.147035e-01 0.000000e+00
 1.237175e-01 -4.403743e-01 0.000000e+00
 1.275453e-01 -3.940250e-01 0.000000e+00
 9.267699e-02 -4.133881e-01 0.000000e+00
 3.032115e-01 -4.300803e-01 0.000000e+00
 2.118114e-01 -4.275787e-01 0.000000e+00
 3.100390e-01 -9.728776e-03 0.000000e+00
 0.000000e+00 0.000000e+00 0.000000e+00
 3.970793e-01 1.737078e-02 0.000000e+00
 3.351621e-01 2.837116e-02 0.000000e+00
 4.450825e-01 -3.073824e-03 0.000000e+00
 4.716835e-01 4.596141e-04 0.000000e+00
 4.695296e-01 -4.351167e-04 0.000000e+00
 4.774230e-02 -3.605364e-01 0.000000e+00
 7.203605e-02 -3.840668e-01 0.000000e+00
 1.684131e-02 -4.492310e-01 0.000000e+00
 1.791886e-02 -4.337131e-01 0.000000e+00
 1.389983e-02 -4.172727e-01 0.000000e+00
 7.882155e-02 -4.775915e-01 0.000000e+00
 8.899938e-02 -4.841130e-01 0.000000e+00
 1.071873e-01 -4.682151e-01 0.000000e+00
 4.639295e-01 9.097380e-03 0.000000e+00
 4.747319e-01 3.966250e-03 0.000000e+00
 4.702915e-01 8.993168e-03 0.000000e+00
 4.358452e-01 -1.287217e-02 0.000000e+00
 4.543115e-01 -7.363678e-03 0.000000e+00
 4.009672e-01 -5.624671e-03 0.000000e+00
 4.769434e-01 6.130168e-03 0.000000e+00
 4.765029e-01 7.829194e-03 0.000000e+00
 4.836227e-01 3.569811e-03 0.000000e+00
 3.444498e-01 -1.873092e-01 0.000000e+00
 3.843504e-01 -1.460989e-01 0.000000e+00
 3.436782e-01 -1.431899e-01 0.000000e+00
 4.791578e-01 -1.167439e-01 0.000000e+00
 4.680476e-01 -1.875244e-01 0.000000e+00
 1.767429e-01 -9.256174e-02 0.000000e+00
 2.343167e-01 -1.111057e-01 0.000000e+00
 2.005077e-01 -6.157891e-02 0.000000e+00
 1.853270e-01 -2.264241e-02 0.000000e+00
 1.303531e-01 -7.253735e-03 0.000000e+00
 1.364837e-01 -2.585596e-01 0.000000e+00
 9.720658e-02 -2.270293e-01 0.000000e+00
 1.057152e-01 -2.778017e-01 0.000000e+00
 4.583179e-01 -5.531856e-02 0.000000e+00
 4.301322e-01 -4.065086e-02 0.000000e+00
 8.345186e-03 -4.734225e-01 0.000000e+00
 1.232837e-02 -4.781256e-01 0.000000e+00
 1.350028e-02 -4.512377e-01 0.000000e+00
 1.485121e-02 -4.744705e-01 0.000000e+00
 8.662162e-03 -4.579463e-01 0.000000e+00
 1.830628e-02 -3.795202e-01 0.000000e+00
 2.731541e-02 -3.928364e-01 0.000000e+00
 1.709544e-02 -3.369072e-01 0.000000e+00
 8.950238e-03 -4.632230e-01 0.000000e+00
 9.348681e-02 -3.844815e-02 0.000000e+00
 7.788362e-02 -6.525964e-02 0.000000e+00
 1.262408e-01 -7.801245e-02 0.000000e+00
 3.062024e-02 -8.703269e-02 0.000000e+00
 5.679784e-02 -8.159368e-02 0.000000e+00
 1.242166e-02 -3.939097e-01 0.000000e+00
 9.899077e-03 -3.623967e-01 0.000000e+00
 1.454547e-02 -4.587314e-01 0.000000e+00
 1.408959e-02 -4.363689e-01 0.000000e+00
 1.241523e-02 -4.577042e-01 0.000000e+00
 4.656706e-01 -2.360561e-02 0.000000e+00
 4.257974e-01 -1.974779e-02 0.000000e+00
 2.817232e-01 -1.832833e-02 0.000000e+00
 3.446129e-01 -3.775947e-02 0.000000e+00
 3.518057e-01 -2.424643e-02 0.000000e+00
 7.130420e-02 -4.698603e-01 0.000000e+00
 1.115450e-01 -4.811142e-01 0.000000e+00
 4.269736e-01 -2.839169e-01 0.000000e+00
 1.832582e-01 1.741381e-04 0.000000e+00
 0.000000e+00 0.000000e+00 0.000000e+00
 3.924065e-01 -2.137604e-02 0.000000e+00
 1.116227e-01 -3.087333e-01 0.000000e+00
 8.736028e-02 -3.335844e-01 0.000000e+00
 1.155003e-01 -3.429355e-01 0.000000e+00
 2.733724e-02 -1.415420e-01 0.000000e+00
 4.247851e-02 -2.003434e-01 0.000000e+00
 5.341286e-02 -1.822990e-01 0.000000e+00
 1.978727e-03 -4.354589e-01 0.000000e+00
 -7.802344e-03 -4.093320e-01 0.000000e+00
 -1.337005e-03 -3.777143e-01 0.000000e+00
 2.816962e-01 -3.192408e-01 0.000000e+00
 2.557826e-01 -3.668264e-01 0.000000e+00
 3.121195e-01 -3.424540e-01 0.000000e+00
 3.582980e-02 -4.289307e-01 0.000000e+00
 3.736319e-02 -4.002088e-01 0.000000e+00
 3.784212e-03 -8.759634e-02 0.000000e+00
 3.409241e-03 -9.802593e-02 0.000000e+00
 0.000000e+00 0.000000e+00 0.000000e+00
 5.266279e-02 -4.157336e-01 0.000000e+00
 7.264159e-02 -4.274171e-01 0.000000e+00
 2.038952e-01 -3.824454e-01 0.000000e+00
 1.625626e-01 -3.646380e-01 0.000000e+00
 6.003907e-02 -2.799476e-01 0.000000e+00
 7.825105e-02 -2.689991e-01 0.000000e+00
 5.373108e-02 -2.479764e-01 0.000000e+00
 4.625021e-01 -7.184132e-04 0.000000e+00
 4.801898e-01 1.672539e-03 0.000000e+00
 4.024806e-01 -7.232655e-03 0.000000e+00
 3.761852e-01 7.774525e-03 0.000000e+00
 4.475430e-01 -2.582754e-03 0.000000e+00
 4.170616e-01 -1.697022e-01 0.000000e+00
 4.098387e-01 -1.276697e-01 0.000000e+00
 4.900247e-01 -6.556985e-02 0.000000e+00
 4.461280e-01 -5.601879e-02 0.000000e+00
 2.860430e-01 -1.239135e-01 0.000000e+00
 3.666656e-01 -3.295905e-01 0.000000e+00
 3.296005e-01 -3.897767e-01 0.000000e+00
 0.000000e+00 0.000000e+00 0.000000e+00
 5.354191e-02 -4.810749e-01 0.000000e+00
 4.600708e-02 -4.807499e-01 0.000000e+00
 3.098335e-02 -4.710743e-01 0.000000e+00
 4.058378e-02 -4.684324e-01 0.000000e+00
 1.757390e-02 -4.770389e-01 0.000000e+00
 1.687977e-02 -4.798123e-01 0.000000e+00
 4.200484e-01 1.311260e-02 0.000000e+00
 4.481640e-01 1.052314e-02 0.000000e+00
 3.916623e-01 1.260503e-02 0.000000e+00
 4.863201e-01 -5.083366e-03 0.000000e+00
 4.622561e-01 1.040777e-03 0.000000e+00
 4.727953e-01 2.867192e-03 0.000000e+00
 3.963118e-01 -2.226970e-03 0.000000e+00
 4.033529e-01 -7.389281e-03 0.000000e+00
 2.686981e-01 9.092477e-03 0.000000e+00
 3.586228e-01 1.143658e-02 0.000000e+00
 4.524541e-01 1.252797e-02 0.000000e+00
 1.457064e-01 -1.291001e-01 0.000000e+00
 1.452570e-01 -4.743376e-01 0.000000e+00
 1.654307e-01 -4.803438e-01 0.000000e+00
 8.714145e-03 -3.669470e-01 0.000000e+00
 1.640467e-02 -3.923492e-01 0.000000e+00
 1.515715e-02 -4.294964e-01 0.000000e+00
 2.353920e-03 -2.705512e-01 0.000000e+00
 4.466171e-02 -4.500735e-01 0.000000e+00
 2.586920e-02 -4.117556e-01 0.000000e+00
 2.207836e-01 -4.571810e-02 0.000000e+00
 2.448377e-01 -2.720925e-02 0.000000e+00
 2.458016e-01 -4.788424e-02 0.000000e+00
 7.767876e-03 -2.069522e-01 0.000000e+00
 1.473087e-02 -2.950017e-01 0.000000e+00
 6.548186e-03 -2.808440e-01 0.000000e+00
 8.489091e-03 -3.326269e-01 0.000000e+00
 1.202186e-02 -3.555673e-01 0.000000e+00
 2.342353e-02 -4.731668e-01 0.000000e+00
 1.772689e-02 -4.670404e-01 0.000000e+00
 1.862357e-02 -4.105552e-01 0.000000e+00
 4.744622e-01 -6.607265e-03 0.000000e+00
 4.576172e-01 -3.178119e-03 0.000000e+00
 3.943725e-01 -6.743741e-04 0.000000e+00
 3.804284e-01 -8.202239e-04 0.000000e+00
 4.352248e-01 -1.205227e-03 0.000000e+00
 -9.278564e-03 -4.388169e-01 0.000000e+00
 -4.677473e-03 -4.593879e-01 0.000000e+00
 1.565477e-02 -3.212287e-01 0.000000e+00
 1.559164e-02 -3.960450e-01 0.000000e+00
 1.556618e-01 -4.570318e-01 0.000000e+00
 2.014237e-01 -4.499487e-01 0.000000e+00
 2.586413e-01 -4.379814e-01 0.000000e+00
 2.205723e-01 -4.114905e-01 0.000000e+00
 3.449296e-01 -2.206854e-02 0.000000e+00
 4.517205e-01 -1.102836e-01 0.000000e+00
 4.116701e-01 1.409130e-02 0.000000e+00
 4.789190e-01 -3.929748e-02 0.000000e+00
 3.197762e-01 -2.303635e-01 0.000000e+00