<?xml version="1.0"?>
<VTKFile type="UnstructuredGrid"  version="0.1"  >
<UnstructuredGrid>
<Piece  NumberOfPoints="505" NumberOfCells="928">
<Points>
<DataArray  type="Float32"  NumberOfComponents="3"  format="ascii">
0 0 0
1 0 0
0 1 0
1 0.5 0
0.5 0.5 0
0.5 1 0
0.1 0 0
0.2 0 0
0.3 0 0
0.4 0 0
0.5 0 0
0.6 0 0
0.7 0 0
0.8 0 0
0.9 0 0
0 0.9 0
0 0.8 0
0 0.7 0
0 0.6 0
0 0.5 0
0 0.4 0
0 0.3 0
0 0.2 0
0 0.1 0
0.9 0.5 0
0.8 0.5 0
0.7 0.5 0
0.6 0.5 0
0.5 0.6 0
0.5 0.7 0
0.5 0.8 0
0.5 0.9 0
0.1 1 0
0.2 1 0
0.3 1 0
0.4 1 0
1 0.1 0
1 0.2 0
1 0.3 0
1 0.4 0
0.300178 0.296564 0
0.247566 0.664879 0
0.639694 0.259804 0
0.06564 0.06472 0
0.04439 0.954144 0
0.932418 0.064715 0
0.951013 0.456419 0
0.437622 0.939659 0
0.195334 0.464441 0
0.483382 0.329596 0
0.834786 0.236295 0
0.307228 0.81139 0
0.178229 0.173372 0
0.366998 0.134199 0
0.547485 0.14214 0
0.124832 0.74927 0
0.160163 0.896658 0
0.342556 0.535243 0
0.147651 0.342018 0
0.729803 0.127878 0
0.725981 0.357775 0
0.121369 0.600441 0
0.372954 0.70814 0
0.908503 0.151525 0
0.89851 0.333305 0
0.556275 0.400898 0
0.259184 0.092178 0
0.46329 0.194362 0
0.423773 0.869712 0
0.22823 0.818162 0
0.081292 0.144905 0
0.082979 0.831935 0
0.549999 0.065419 0
0.371537 0.407588 0
0.642628 0.097865 0
0.459835 0.086595 0
0.108565 0.418567 0
0.273082 0.902112 0
0.256598 0.556659 0
0.11951 0.509541 0
0.234147 0.370527 0
0.097453 0.253261 0
0.638438 0.342389 0
0.554656 0.224779 0
0.373432 0.237603 0
0.339663 0.62579 0
0.27079 0.747786 0
0.733958 0.266592 0
0.928527 0.244458 0
0.853116 0.071497 0
0.818426 0.404817 0
0.280194 0.200604 0
0.417859 0.565185 0
0.147241 0.079056 0
0.389149 0.789957 0
0.42808 0.654642 0
0.343469 0.059202 0
0.086765 0.684153 0
0.162043 0.675011 0
0.809252 0.14201 0
0.364337 0.928607 0
0.077532 0.916553 0
0.159064 0.807906 0
0.302124 0.454032 0
0.205909 0.272176 0
0.449664 0.407415 0
0.66041 0.423241 0
0.562201 0.303789 0
0.802658 0.320211 0
0.614551 0.182931 0
0.390944 0.331035 0
0.687136 0.18846 0
0.070577 0.342498 0
0.741087 0.437361 0
0.176989 0.547528 0
0.710251 0.07409 0
0.192845 0.608574 0
0.171114 0.398277 0
0.058959 0.753084 0
0.904 0.425508 0
0.438039 0.730373 0
0.057223 0.475897 0
0.058502 0.552106 0
0.330493 0.750997 0
0.312295 0.699131 0
0.684882 0.307111 0
0.053312 0.627311 0
0.198798 0.743695 0
0.392326 0.069953 0
0.351519 0.860283 0
0.397134 0.477694 0
0.319385 0.371198 0
0.767351 0.069505 0
0.441954 0.271171 0
0.759504 0.192785 0
0.855661 0.457701 0
0.500847 0.264652 0
0.916209 0.0323575 0
0.966209 0.0323575 0
0.95 0 0
0.578137 0.450449 0
0.528137 0.450449 0
0.55 0.5 0
0.03282 0.08236 0
0.03282 0.03236 0
0 0.05 0
0.502969 0.404157 0
0.474832 0.453708 0
0.468811 0.91983 0
0.468811 0.96983 0
0.5 0.95 0
0.072195 0.977072 0
0.022195 0.977072 0
0.05 1 0
0.022195 0.927072 0
0 0.95 0
0.060961 0.935348 0
0.038766 0.908276 0
0.106441 0.071888 0
0.123621 0.039528 0
0.08282 0.03236 0
0.0414895 0.815967 0
0.0414895 0.865968 0
0 0.85 0
0.173621 0.039528 0
0.15 0 0
0.05 0 0
0.301327 0.07569 0
0.321735 0.029601 0
0.279592 0.046089 0
0.070969 0.792509 0
0.0294795 0.776542 0
0.0294795 0.726542 0
0 0.75 0
0.114267 0.111981 0
0.073466 0.104813 0
0.229592 0.046089 0
0.25 0 0
0.371735 0.029601 0
0.35 0 0
0.479917 0.0432975 0
0.429918 0.0432975 0
0.45 0 0
0.461562 0.140479 0
0.413416 0.110397 0
0.415144 0.16428 0
0.574999 0.0327095 0
0.525 0.0327095 0
0.55 0 0
0.596313 0.081642 0
0.621314 0.0489325 0
0.927507 0.440964 0
0.902 0.462754 0
0.925507 0.47821 0
0.0700385 0.655732 0
0.026656 0.663655 0
0.0433825 0.692076 0
0.026656 0.613655 0
0 0.65 0
0.276766 0.370862 0
0.309781 0.333881 0
0.267162 0.333545 0
0.458929 0.582593 0
0.458929 0.532593 0
0.5 0.55 0
0.422969 0.609913 0
0.46404 0.627321 0
0.43306 0.692508 0
0.46902 0.715186 0
0.46404 0.677321 0
0.46902 0.765186 0
0.5 0.75 0
0.180082 0.948329 0
0.130082 0.948329 0
0.15 1 0
0.87983 0.441605 0
0.87783 0.478851 0
0.975507 0.42821 0
0.975507 0.47821 0
1 0.45 0
0.676439 0.0859775 0
0.705125 0.037045 0
0.671314 0.0489325 0
0.779756 0.421089 0
0.770544 0.46868 0
0.809213 0.452408 0
0.738801 0.0717975 0
0.733675 0.0347525 0
0.95 0.5 0
0.720544 0.46868 0
0.75 0.5 0
0.029251 0.526053 0
0.029251 0.576053 0
0 0.55 0
0.089006 0.530824 0
0.0899355 0.576273 0
0.12044 0.554991 0
0.461886 0.884856 0
0.461886 0.834856 0
0.5 0.85 0
0.089571 0.380533 0
0.0352885 0.371249 0
0.0542825 0.409284 0
0.918515 0.197991 0
0.964263 0.222229 0
0.954252 0.175762 0
0.630205 0.46162 0
0.680205 0.46162 0
0.65 0.5 0
0.0352885 0.321249 0
0 0.35 0
0.0487265 0.226631 0
0.0487265 0.276631 0
0 0.25 0
0.286541 0.951056 0
0.236541 0.951056 0
0.25 1 0
0.382169 0.964303 0
0.332168 0.964303 0
0.35 1 0
0.966209 0.0823575 0
1 0.05 0
0.876558 0.0357485 0
0.826558 0.0357485 0
0.85 0 0
0.710547 0.227526 0
0.663415 0.224132 0
0.686826 0.263198 0
0.964263 0.272229 0
1 0.25 0
0.40098 0.934133 0
0.418811 0.96983 0
0.45 1 0
0.326813 0.219104 0
0.290186 0.248584 0
0.336805 0.267084 0
0.243052 0.23639 0
0.253043 0.28437 0
0.224721 0.582616 0
0.220205 0.636726 0
0.252082 0.610769 0
0.92046 0.10812 0
0.954252 0.125762 0
0.66166 0.32475 0
0.662288 0.283458 0
0.639066 0.301096 0
0.949255 0.366653 0
0.949255 0.316653 0
1 0.35 0
0.291542 0.723459 0
0.27993 0.682005 0
0.259178 0.706333 0
0.394055 0.89916 0
0.430698 0.904686 0
0.531524 0.28422 0
0.492115 0.297124 0
0.522791 0.316692 0
0.040646 0.122453 0
0.040646 0.172453 0
0 0.15 0
1 0.15 0
0.151681 0.262718 0
0.192069 0.222774 0
0.137841 0.213317 0
0.558428 0.264284 0
0.600947 0.281797 0
0.597175 0.242291 0
0.508973 0.20957 0
0.551071 0.183459 0
0.505387 0.168251 0
0.118847 0.906605 0
0.088766 0.958276 0
0.3123 0.881198 0
0.329373 0.835836 0
0.290155 0.856751 0
0.18042 0.709353 0
0.223182 0.704287 0
0.204805 0.669945 0
0.114037 0.464054 0
0.157422 0.486991 0
0.15195 0.441504 0
0.279361 0.505346 0
0.248729 0.459236 0
0.225966 0.51055 0
0.423399 0.442555 0
0.448567 0.488847 0
0.892767 0.068106 0
0.65 0 0
0.901255 0.379406 0
0.952 0.412754 0
0.858877 0.146767 0
0.822019 0.189153 0
0.871644 0.19391 0
0.14825 0.528535 0
0.186162 0.505985 0
0.178931 0.775801 0
0.161815 0.746482 0
0.141948 0.778588 0
0.29813 0.591225 0
0.34111 0.580516 0
0.299577 0.545951 0
0.913519 0.288882 0
0.881657 0.240376 0
0.866648 0.2848 0
0.664882 0.143162 0
0.708469 0.158169 0
0.686215 0.112871 0
0.768308 0.293401 0
0.818722 0.278253 0
0.784372 0.251443 0
0.407693 0.254387 0
0.452622 0.232766 0
0.418361 0.215983 0
0.559238 0.352343 0
0.519829 0.365247 0
0.269689 0.146391 0
0.323596 0.167402 0
0.313091 0.113188 0
0.367897 0.0645775 0
0.396163 0.0349765 0
0.220028 0.321352 0
0.17678 0.307097 0
0.190899 0.356272 0
0.584604 0.203855 0
0.581018 0.162535 0
0.250656 0.860137 0
0.267729 0.814776 0
0.359821 0.770477 0
0.31886 0.781193 0
0.348189 0.800674 0
0.124404 0.679582 0
0.141706 0.637726 0
0.104067 0.642297 0
0.216622 0.899385 0
0.203213 0.085617 0
0.162735 0.126214 0
0.218707 0.132775 0
0.0893725 0.199083 0
0.129761 0.159139 0
0.121022 0.819921 0
0.103905 0.790602 0
0.193647 0.813034 0
0.159614 0.852282 0
0.194196 0.85741 0
0.650843 0.185696 0
0.628589 0.140398 0
0.504917 0.076007 0
0.50366 0.114367 0
0.548742 0.103779 0
0.378761 0.595487 0
0.380208 0.550214 0
0.466523 0.368506 0
0.783675 0.0347525 0
0.75 0 0
0.595056 0.120002 0
0.20263 0.384402 0
0.183224 0.431359 0
0.214741 0.417484 0
0.084015 0.29788 0
0.109114 0.342258 0
0.122552 0.29764 0
0.370334 0.82512 0
0.387646 0.864998 0
0.406461 0.829835 0
0.355164 0.351116 0
0.345461 0.389393 0
0.38124 0.369312 0
0.177444 0.641792 0
0.157107 0.604507 0
0.0286115 0.437949 0
0.0286115 0.487949 0
0 0.45 0
0.184917 0.578051 0
0.216794 0.552094 0
0.310754 0.412615 0
0.268135 0.41228 0
0.13984 0.408422 0
0.159382 0.370147 0
0.128108 0.380293 0
0.784378 0.167398 0
0.797145 0.21454 0
0.649424 0.382815 0
0.693196 0.390508 0
0.682209 0.350082 0
0.471401 0.267911 0
0.482069 0.229507 0
0.600319 0.323089 0
0.597356 0.371644 0
0.370215 0.185901 0
0.420304 0.369225 0
0.410601 0.407502 0
0.5 0.65 0
0.293615 0.645334 0
0.325979 0.66246 0
0.342624 0.703635 0
0.356309 0.666965 0
0.24951 0.782974 0
0.289009 0.779588 0
0.810542 0.362514 0
0.76432 0.338993 0
0.772204 0.381296 0
0.70942 0.286852 0
0.705431 0.332443 0
0.729969 0.312184 0
0.831184 0.106754 0
0.88081 0.111511 0
0.700748 0.430301 0
0.733534 0.397568 0
0.850584 0.326758 0
0.229212 0.186988 0
0.407496 0.52144 0
0.369845 0.506468 0
0.413594 0.760165 0
0.405497 0.719256 0
0.381051 0.749049 0
0.444574 0.794979 0
0.383872 0.640216 0
0.400517 0.681391 0
0.355233 0.0967005 0
0.42608 0.078274 0
0.379662 0.102076 0
0.055907 0.589708 0
0.0873405 0.613876 0
0.072862 0.718619 0
0.0918955 0.751177 0
0.105798 0.716711 0
0.234794 0.74574 0
0.213514 0.780928 0
0.143437 0.712141 0
0.72332 0.190623 0
0.744653 0.160332 0
0.788301 0.105758 0
0.748577 0.0986915 0
0.769527 0.134944 0
0.357928 0.894445 0
0.318709 0.915359 0
0.0802555 0.874244 0
0.121571 0.864297 0
0.32234 0.494638 0
0.349629 0.465863 0
0.384335 0.442641 0
0.336831 0.43081 0
0.608343 0.412069 0
0.527752 0.244716 0
0.858468 0.369061 0
0.627123 0.221367 0
0.382188 0.284319 0
0.345561 0.3138 0
0.437163 0.330315 0
0.746731 0.229689 0
0.149179 0.573985 0
0.720027 0.100984 0
0.810234 0.070501 0
0.861213 0.415162 0
0.827831 0.478851 0
0.85 0.5 0
0.082894 0.447232 0
0.0883665 0.492719 0
0.0578625 0.514002 0
0.300642 0.749391 0
0.351723 0.729569 0
0.321394 0.725064 0
0.416449 0.301103 0
0.462668 0.300384 0
0.837044 0.431259 0
</DataArray>
</Points>
<Cells>
<DataArray  type="UInt32"  Name="connectivity"  format="ascii">
1 138 139 
14 137 139 
45 137 138 
137 138 139 
4 141 142 
27 140 142 
65 140 141 
140 141 142 
0 144 145 
23 143 145 
43 143 144 
143 144 145 
4 141 147 
65 141 146 
105 146 147 
141 146 147 
5 149 150 
31 148 150 
47 148 149 
148 149 150 
2 152 153 
32 151 153 
44 151 152 
151 152 153 
2 152 155 
15 154 155 
44 152 154 
152 154 155 
15 154 157 
44 154 156 
101 156 157 
154 156 157 
6 159 160 
43 158 160 
93 158 159 
158 159 160 
15 162 163 
16 161 163 
71 161 162 
161 162 163 
6 159 165 
7 164 165 
93 159 164 
159 164 165 
[...]
<PointData  Vectors="u"> 
<DataArray  type="Float32"  Name="u"  NumberOfComponents="3" format="ascii">
 0.000000e+00 0.000000e+00 0.000000e+00
 -9.457034e-02 2.366752e-02 0.000000e+00
 -1.697574e-02 8.069930e-02 0.000000e+00
 -8.309661e-02 -1.458846e-02 0.000000e+00
 0.000000e+00 0.000000e+00 0.000000e+00
 1.916312e-02 8.236454e-02 0.000000e+00
 0.000000e+00 0.000000e+00 0.000000e+00
 0.000000e+00 0.000000e+00 0.000000e+00
 0.000000e+00 0.000000e+00 0.000000e+00
 0.000000e+00 0.000000e+00 0.000000e+00
 0.000000e+00 0.000000e+00 0.000000e+00
 0.000000e+00 0.000000e+00 0.000000e+00
 0.000000e+00 0.000000e+00 0.000000e+00
 0.000000e+00 0.000000e+00 0.000000e+00
 0.000000e+00 0.000000e+00 0.000000e+00
 0.000000e+00 0.000000e+00 0.000000e+00
 0.000000e+00 0.000000e+00 0.000000e+00
 0.000000e+00 0.000000e+00 0.000000e+00
 0.000000e+00 0.000000e+00 0.000000e+00
 0.000000e+00 0.000000e+00 0.000000e+00
 0.000000e+00 0.000000e+00 0.000000e+00
 0.000000e+00 0.000000e+00 0.000000e+00
 0.000000e+00 0.000000e+00 0.000000e+00
 0.000000e+00 0.000000e+00 0.000000e+00
 0.000000e+00 0.000000e+00 0.000000e+00
 0.000000e+00 0.000000e+00 0.000000e+00
 0.000000e+00 0.000000e+00 0.000000e+00
 0.000000e+00 0.000000e+00 0.000000e+00
 0.000000e+00 0.000000e+00 0.000000e+00
 0.000000e+00 0.000000e+00 0.000000e+00
 0.000000e+00 0.000000e+00 0.000000e+00
 0.000000e+00 0.000000e+00 0.000000e+00
 -1.221131e-02 1.543233e-01 0.000000e+00
 -1.791803e-03 1.368274e-01 0.000000e+00
 8.573533e-04 1.355689e-01 0.000000e+00
 1.129992e-02 1.518100e-01 0.000000e+00
 -1.519442e-01 2.158710e-02 0.000000e+00
 -1.322446e-01 1.821381e-02 0.000000e+00
 -1.355044e-01 1.491273e-02 0.000000e+00
 -1.554920e-01 -3.589691e-03 0.000000e+00
 -6.811123e-02 3.965121e-02 0.000000e+00
 -1.366934e-02 1.340897e-01 0.000000e+00
 -1.317056e-01 3.063298e-02 0.000000e+00
 -9.103555e-03 8.806002e-03 0.000000e+00
 -1.984321e-02 1.204521e-01 0.000000e+00
 -1.423061e-01 2.162726e-02 0.000000e+00
 -1.223036e-01 -1.770148e-02 0.000000e+00
 1.512969e-02 1.411088e-01 0.000000e+00
 -3.438536e-02 1.099172e-01 0.000000e+00
 -1.651432e-01 5.401242e-02 0.000000e+00
 -1.286905e-01 2.257816e-02 0.000000e+00
 -2.619486e-03 1.450603e-01 0.000000e+00
 -5.037121e-02 4.211165e-02 0.000000e+00
 -8.422048e-02 1.107448e-02 0.000000e+00
 -1.022399e-01 1.511741e-02 0.000000e+00
 -4.170444e-03 1.630322e-01 0.000000e+00
 -4.553607e-03 1.544274e-01 0.000000e+00
 -5.730490e-02 1.700714e-01 0.000000e+00
 -2.985075e-02 9.488001e-02 0.000000e+00
 -1.325000e-01 1.502783e-02 0.000000e+00
 -1.957056e-01 2.099315e-02 0.000000e+00
 -9.813218e-03 1.522547e-01 0.000000e+00
 -4.049976e-03 1.717660e-01 0.000000e+00
 -1.472888e-01 1.847485e-02 0.000000e+00
 -1.592879e-01 1.201352e-02 0.000000e+00
 -2.385503e-01 4.219652e-02 0.000000e+00
 -6.791244e-02 1.183709e-02 0.000000e+00
 -8.893772e-02 1.785035e-02 0.000000e+00
 3.389609e-03 1.541571e-01 0.000000e+00
 -4.003343e-03 1.351860e-01 0.000000e+00
 -1.833750e-02 3.640624e-02 0.000000e+00
 -2.838125e-03 1.574929e-01 0.000000e+00
 -9.128325e-02 4.853880e-03 0.000000e+00
 -1.267314e-01 1.096223e-01 0.000000e+00
 -1.172784e-01 1.021649e-02 0.000000e+00
 -9.022075e-02 6.343145e-03 0.000000e+00
 -1.687192e-02 1.197533e-01 0.000000e+00
 -9.873423e-04 1.334448e-01 0.000000e+00
 -3.339782e-02 1.272437e-01 0.000000e+00
 -1.482587e-02 1.387046e-01 0.000000e+00
 -5.112032e-02 7.310371e-02 0.000000e+00
 -2.004396e-02 7.505560e-02 0.000000e+00
 -1.973858e-01 2.955033e-02 0.000000e+00
 -1.069271e-01 2.625250e-02 0.000000e+00
 -7.887764e-02 2.217838e-02 0.000000e+00
 -1.847041e-02 1.688426e-01 0.000000e+00
 -6.464380e-03 1.367495e-01 0.000000e+00
 -1.371968e-01 2.807893e-02 0.000000e+00
 -1.280990e-01 1.825587e-02 0.000000e+00
 -1.382541e-01 7.966708e-03 0.000000e+00
 -1.858491e-01 7.710249e-03 0.000000e+00
 -6.751910e-02 2.595020e-02 0.000000e+00
 -2.933119e-02 1.863158e-01 0.000000e+00
 -3.615669e-02 1.553103e-02 0.000000e+00
 -6.293532e-04 1.683261e-01 0.000000e+00
 -1.696106e-03 1.557434e-01 0.000000e+00
 -6.633684e-02 3.983571e-03 0.000000e+00
 -3.526751e-03 1.529654e-01 0.000000e+00
 -8.975431e-03 1.503164e-01 0.000000e+00
 -1.420486e-01 1.640284e-02 0.000000e+00
 5.119735e-03 1.589511e-01 0.000000e+00
 -1.017362e-02 1.556710e-01 0.000000e+00
 -4.217120e-03 1.559189e-01 0.000000e+00
 -7.339596e-02 1.104555e-01 0.000000e+00
 -4.788008e-02 5.818335e-02 0.000000e+00
 -2.035828e-01 1.156111e-01 0.000000e+00
 -2.026157e-01 1.248059e-02 0.000000e+00
 -1.608151e-01 3.698236e-02 0.000000e+00
 -1.639301e-01 2.067699e-02 0.000000e+00
 -1.082742e-01 2.286911e-02 0.000000e+00
 -1.144062e-01 5.577589e-02 0.000000e+00
 -1.173953e-01 2.431345e-02 0.000000e+00
 -1.008831e-02 9.061177e-02 0.000000e+00
 -1.689978e-01 6.215103e-03 0.000000e+00
 -2.178503e-02 1.322503e-01 0.000000e+00
 -1.192348e-01 6.420418e-03 0.000000e+00
 -1.702650e-02 1.360950e-01 0.000000e+00
 -3.301881e-02 1.013654e-01 0.000000e+00
 -1.300416e-03 1.322899e-01 0.000000e+00
 -1.632028e-01 -4.452592e-03 0.000000e+00
 -1.395915e-04 1.402715e-01 0.000000e+00
 -5.116987e-03 1.059540e-01 0.000000e+00
 -3.882975e-03 1.176445e-01 0.000000e+00
 -4.361002e-03 1.560930e-01 0.000000e+00
 -8.798636e-03 1.511766e-01 0.000000e+00
 -1.651858e-01 2.899283e-02 0.000000e+00
 -2.172802e-03 1.182272e-01 0.000000e+00
 -6.628488e-03 1.414575e-01 0.000000e+00
 -7.734028e-02 4.512351e-03 0.000000e+00
 9.127272e-04 1.596618e-01 0.000000e+00
 -1.240567e-01 1.828073e-01 0.000000e+00
 -8.494648e-02 6.902720e-02 0.000000e+00
 -1.241568e-01 5.536608e-03 0.000000e+00
 -1.049117e-01 3.212980e-02 0.000000e+00
 -1.252139e-01 2.343879e-02 0.000000e+00
 -1.212847e-01 2.803004e-04 0.000000e+00
 -1.170892e-01 3.169809e-02 0.000000e+00
 -9.634874e-02 1.287139e-02 0.000000e+00
 -1.070552e-01 2.427547e-02 0.000000e+00
 0.000000e+00 0.000000e+00 0.000000e+00
 -1.858251e-01 1.649902e-02 0.000000e+00
 -2.119374e-01 5.319788e-02 0.000000e+00
 0.000000e+00 0.000000e+00 0.000000e+00
 -3.469933e-03 7.431333e-03 0.000000e+00
 -1.117817e-03 1.114226e-03 0.000000e+00
 0.000000e+00 0.000000e+00 0.000000e+00
 -2.371533e-01 7.915470e-02 0.000000e+00
 -2.121483e-01 1.323678e-01 0.000000e+00
 9.316601e-03 9.371518e-02 0.000000e+00
 2.003718e-02 1.012826e-01 0.000000e+00
 0.000000e+00 0.000000e+00 0.000000e+00
 -1.785162e-02 1.442497e-01 0.000000e+00
 -1.981623e-02 9.408839e-02 0.000000e+00
 -2.083065e-02 1.217946e-01 0.000000e+00
 -1.003049e-02 7.421309e-02 0.000000e+00
 0.000000e+00 0.000000e+00 0.000000e+00
 -1.453972e-02 1.413774e-01 0.000000e+00
 -7.019832e-03 1.097300e-01 0.000000e+00
 -2.161946e-02 1.339808e-02 0.000000e+00
 -1.734782e-02 5.115391e-03 0.000000e+00
 -7.235173e-03 3.223477e-03 0.000000e+00
 -8.887998e-04 1.070936e-01 0.000000e+00
 -2.047132e-03 1.096343e-01 0.000000e+00
 0.000000e+00 0.000000e+00 0.000000e+00
 -2.781866e-02 4.723080e-03 0.000000e+00
 0.000000e+00 0.000000e+00 0.000000e+00
 0.000000e+00 0.000000e+00 0.000000e+00
 -6.974707e-02 6.962698e-03 0.000000e+00
 -3.902203e-02 1.482889e-03 0.000000e+00
 -4.958267e-02 3.616720e-03 0.000000e+00
 -1.764007e-03 1.468801e-01 0.000000e+00
 -3.854316e-04 8.161496e-02 0.000000e+00
 -4.217324e-04 8.039590e-02 0.000000e+00
 0.000000e+00 0.000000e+00 0.000000e+00
 -2.947363e-02 2.731818e-02 0.000000e+00
 -1.472551e-02 2.127431e-02 0.000000e+00
 -4.219953e-02 4.738772e-03 0.000000e+00
 0.000000e+00 0.000000e+00 0.000000e+00
 -4.244506e-02 1.240601e-03 0.000000e+00
 0.000000e+00 0.000000e+00 0.000000e+00
 -6.541909e-02 2.247307e-03 0.000000e+00
 -6.137401e-02 2.138834e-03 0.000000e+00
 0.000000e+00 0.000000e+00 0.000000e+00
 -9.221933e-02 1.195387e-02 0.000000e+00
 -8.913630e-02 8.443711e-03 0.000000e+00
 -8.529527e-02 1.318888e-02 0.000000e+00
 -6.077802e-02 1.613915e-03 0.000000e+00
 -5.680854e-02 1.529834e-03 0.000000e+00
 0.000000e+00 0.000000e+00 0.000000e+00
 -1.056986e-01 7.397233e-03 0.000000e+00
 -8.548401e-02 3.253087e-03 0.000000e+00
 -1.451735e-01 -1.109329e-02 0.000000e+00
 -1.126781e-01 -5.336183e-03 0.000000e+00
 -7.603968e-02 -1.006591e-02 0.000000e+00
 -2.942585e-03 1.391402e-01 0.000000e+00
 -5.019464e-04 7.231086e-02 0.000000e+00
 -1.000322e-03 1.067984e-01 0.000000e+00
 -7.183559e-04 7.032731e-02 0.000000e+00
 0.000000e+00 0.000000e+00 0.000000e+00
 -6.542863e-02 6.667495e-02 0.000000e+00
 -7.527332e-02 5.122332e-02 0.000000e+00
 -6.073177e-02 5.488486e-02 0.000000e+00
 -4.876789e-03 1.176294e-01 0.000000e+00
 -5.228950e-02 1.496145e-01 0.000000e+00
 0.000000e+00 0.000000e+00 0.000000e+00
 -8.311372e-03 1.687940e-01 0.000000e+00
 3.028820e-04 9.818179e-02 0.000000e+00
 -4.861712e-04 1.475246e-01 0.000000e+00
 2.271331e-04 8.566949e-02 0.000000e+00
 3.816411e-04 9.653969e-02 0.000000e+00
 2.093229e-04 8.569625e-02 0.000000e+00
 0.000000e+00 0.000000e+00 0.000000e+00
 -3.431982e-03 1.444132e-01 0.000000e+00
 -7.460010e-03 1.592557e-01 0.000000e+00
 -5.054676e-03 1.510134e-01 0.000000e+00
 -1.481951e-01 -1.676705e-03 0.000000e+00
 -6.965782e-02 -5.662551e-04 0.000000e+00
 -1.446649e-01 -1.228018e-02 0.000000e+00
 -9.551889e-02 -1.690474e-02 0.000000e+00
 -1.217051e-01 -1.588562e-02 0.000000e+00
 -1.197045e-01 8.317818e-03 0.000000e+00
 -7.913274e-02 1.922853e-03 0.000000e+00
 -9.113409e-02 3.278899e-03 0.000000e+00
 -1.815440e-01 7.477213e-03 0.000000e+00
 -1.012379e-01 1.728269e-03 0.000000e+00
 -1.347919e-01 2.509754e-03 0.000000e+00
 -1.218117e-01 5.957123e-03 0.000000e+00
 -7.742499e-02 1.687384e-03 0.000000e+00
 0.000000e+00 0.000000e+00 0.000000e+00
 -1.063336e-01 2.197592e-03 0.000000e+00
 0.000000e+00 0.000000e+00 0.000000e+00
 -1.365986e-03 7.024999e-02 0.000000e+00
 -1.047844e-03 7.369444e-02 0.000000e+00
 0.000000e+00 0.000000e+00 0.000000e+00
 -8.630187e-03 1.375718e-01 0.000000e+00
 -7.067570e-03 1.443111e-01 0.000000e+00
 -1.231129e-02 1.462262e-01 0.000000e+00
 3.023159e-03 1.041827e-01 0.000000e+00
 7.288206e-04 1.015027e-01 0.000000e+00
 0.000000e+00 0.000000e+00 0.000000e+00
 -1.366064e-02 1.076903e-01 0.000000e+00
 -3.070919e-03 6.281649e-02 0.000000e+00
 -5.710507e-03 9.188702e-02 0.000000e+00
 -1.330181e-01 1.896767e-02 0.000000e+00
 -1.282529e-01 1.816446e-02 0.000000e+00
 -1.392284e-01 1.858115e-02 0.000000e+00
 -1.403866e-01 5.399479e-03 0.000000e+00
 -1.305728e-01 3.730613e-03 0.000000e+00
 0.000000e+00 0.000000e+00 0.000000e+00
 -3.389041e-03 5.525341e-02 0.000000e+00
 0.000000e+00 0.000000e+00 0.000000e+00
 -7.104828e-03 4.856987e-02 0.000000e+00
 -6.329828e-03 6.007189e-02 0.000000e+00
 0.000000e+00 0.000000e+00 0.000000e+00
 2.349283e-04 1.340312e-01 0.000000e+00
 -1.221559e-03 1.311296e-01 0.000000e+00
 -5.072319e-04 1.296316e-01 0.000000e+00
 8.222383e-03 1.571420e-01 0.000000e+00
 2.838896e-03 1.459426e-01 0.000000e+00
 4.300350e-03 1.488591e-01 0.000000e+00
 -1.489176e-01 2.383248e-02 0.000000e+00
 -1.247847e-01 2.526752e-02 0.000000e+00
 -9.436984e-02 4.236114e-03 0.000000e+00
 -8.751673e-02 1.969910e-03 0.000000e+00
 0.000000e+00 0.000000e+00 0.000000e+00
 -1.225975e-01 2.771803e-02 0.000000e+00
 -1.183024e-01 2.805278e-02 0.000000e+00
 -1.351836e-01 2.977887e-02 0.000000e+00
 -1.298141e-01 1.669585e-02 0.000000e+00
 -1.265613e-01 1.762851e-02 0.000000e+00
 9.727052e-03 1.608480e-01 0.000000e+00
 1.516824e-02 1.487875e-01 0.000000e+00
 1.987420e-02 1.201328e-01 0.000000e+00
 -7.173348e-02 2.181657e-02 0.000000e+00
 -6.505303e-02 3.115112e-02 0.000000e+00
 -7.450084e-02 2.931799e-02 0.000000e+00
 -5.805565e-02 3.971646e-02 0.000000e+00
 -5.704892e-02 4.602613e-02 0.000000e+00
 -2.395933e-02 1.282652e-01 0.000000e+00
 -1.596328e-02 1.334178e-01 0.000000e+00
 -2.177821e-02 1.323985e-01 0.000000e+00
 -1.565230e-01 1.884772e-02 0.000000e+00
 -1.532669e-01 1.965591e-02 0.000000e+00
 -1.809325e-01 2.910485e-02 0.000000e+00
 -1.479441e-01 3.064971e-02 0.000000e+00
 -1.619893e-01 3.160639e-02 0.000000e+00
 -1.614009e-01 4.550661e-03 0.000000e+00
 -1.442643e-01 1.281377e-02 0.000000e+00
 -1.518912e-01 8.242559e-03 0.000000e+00
 -7.563677e-03 1.425626e-01 0.000000e+00
 -1.166136e-02 1.400233e-01 0.000000e+00
 -9.560823e-03 1.354805e-01 0.000000e+00
 5.560162e-03 1.648321e-01 0.000000e+00
 7.507330e-03 1.488036e-01 0.000000e+00
 -1.379882e-01 3.560483e-02 0.000000e+00
 -1.387508e-01 4.060476e-02 0.000000e+00
 -1.661611e-01 4.383320e-02 0.000000e+00
 -5.911448e-03 1.823500e-02 0.000000e+00
 -5.893861e-03 3.041594e-02 0.000000e+00
 0.000000e+00 0.000000e+00 0.000000e+00
 -1.467147e-01 1.871830e-02 0.000000e+00
 -3.545320e-02 7.295665e-02 0.000000e+00
 -4.913711e-02 5.152413e-02 0.000000e+00
 -3.508373e-02 6.131650e-02 0.000000e+00
 -1.274203e-01 3.166770e-02 0.000000e+00
 -1.449177e-01 3.269949e-02 0.000000e+00
 -1.190585e-01 2.935227e-02 0.000000e+00
 -9.674916e-02 2.212861e-02 0.000000e+00
 -9.988509e-02 2.073172e-02 0.000000e+00
 -9.450703e-02 1.663518e-02 0.000000e+00
 -6.996630e-03 1.649101e-01 0.000000e+00
 -1.356349e-02 1.561258e-01 0.000000e+00
 -5.519493e-07 1.443447e-01 0.000000e+00
 -9.619472e-04 1.524868e-01 0.000000e+00
 -1.590245e-03 1.384288e-01 0.000000e+00
 -7.879704e-03 1.461274e-01 0.000000e+00
 -9.463794e-03 1.355881e-01 0.000000e+00
 -1.169459e-02 1.376945e-01 0.000000e+00
 -1.617569e-02 1.299630e-01 0.000000e+00
 -2.377536e-02 1.265979e-01 0.000000e+00
 -2.577804e-02 1.182255e-01 0.000000e+00
 -5.173809e-02 1.222253e-01 0.000000e+00
 -5.020392e-02 1.004670e-01 0.000000e+00
 -3.615792e-02 1.154746e-01 0.000000e+00
 -1.744240e-01 1.574565e-01 0.000000e+00
 -1.414811e-01 1.792410e-01 0.000000e+00
 -1.413710e-01 1.227160e-02 0.000000e+00
 0.000000e+00 0.000000e+00 0.000000e+00
 -1.751052e-01 4.016846e-03 0.000000e+00
 -1.593134e-01 -7.059677e-03 0.000000e+00
 -1.462334e-01 1.722564e-02 0.000000e+00
 -1.313380e-01 2.110523e-02 0.000000e+00
 -1.330854e-01 1.995543e-02 0.000000e+00
 -1.869224e-02 1.372614e-01 0.000000e+00
 -2.797197e-02 1.219932e-01 0.000000e+00
 -5.098420e-03 1.483842e-01 0.000000e+00
 -5.592722e-03 1.536505e-01 0.000000e+00
 -4.249039e-03 1.607172e-01 0.000000e+00
 -2.899742e-02 1.470088e-01 0.000000e+00
 -3.369948e-02 1.725072e-01 0.000000e+00
 -4.390659e-02 1.428250e-01 0.000000e+00
 -1.381511e-01 1.634850e-02 0.000000e+00
 -1.288733e-01 2.014635e-02 0.000000e+00
 -1.400983e-01 1.920712e-02 0.000000e+00
 -1.197857e-01 1.780085e-02 0.000000e+00
 -1.240558e-01 2.002370e-02 0.000000e+00
 -1.260479e-01 1.279265e-02 0.000000e+00
 -1.506841e-01 2.530258e-02 0.000000e+00
 -1.402215e-01 2.279094e-02 0.000000e+00
 -1.312618e-01 2.553713e-02 0.000000e+00
 -8.913958e-02 2.622424e-02 0.000000e+00
 -9.276231e-02 2.336779e-02 0.000000e+00
 -8.412275e-02 1.908397e-02 0.000000e+00
 -2.085924e-01 4.257291e-02 0.000000e+00
 -2.142657e-01 5.761562e-02 0.000000e+00
 -7.229486e-02 2.007030e-02 0.000000e+00
 -7.656436e-02 1.647875e-02 0.000000e+00
 -7.900979e-02 1.145112e-02 0.000000e+00
 -7.210075e-02 4.236514e-03 0.000000e+00
 -5.054291e-02 1.557467e-03 0.000000e+00
 -4.857160e-02 6.434293e-02 0.000000e+00
 -3.889358e-02 7.657241e-02 0.000000e+00
 -4.006125e-02 8.332448e-02 0.000000e+00
 -1.058097e-01 2.463171e-02 0.000000e+00
 -1.048190e-01 1.905494e-02 0.000000e+00
 -2.557518e-03 1.328980e-01 0.000000e+00
 -3.517309e-03 1.349972e-01 0.000000e+00
 -2.245665e-03 1.655595e-01 0.000000e+00
 -3.426647e-03 1.503226e-01 0.000000e+00
 -1.624645e-03 1.607148e-01 0.000000e+00
 -6.251503e-03 1.593036e-01 0.000000e+00
 -9.723027e-03 1.530972e-01 0.000000e+00
 -6.097412e-03 1.556239e-01 0.000000e+00
 -2.614841e-03 1.358033e-01 0.000000e+00
 -5.393417e-02 1.438552e-02 0.000000e+00
 -4.721195e-02 2.992226e-02 0.000000e+00
 -6.303039e-02 2.464736e-02 0.000000e+00
 -1.980701e-02 5.651155e-02 0.000000e+00
 -3.560310e-02 4.411285e-02 0.000000e+00
 -3.636605e-03 1.655867e-01 0.000000e+00
 -2.982471e-03 1.640767e-01 0.000000e+00
 -4.320622e-03 1.436354e-01 0.000000e+00
 -4.108157e-03 1.557690e-01 0.000000e+00
 -3.615442e-03 1.431109e-01 0.000000e+00
 -1.129220e-01 2.387666e-02 0.000000e+00
 -1.144202e-01 1.703797e-02 0.000000e+00
 -9.153467e-02 5.650958e-03 0.000000e+00
 -9.852680e-02 1.027775e-02 0.000000e+00
 -1.038434e-01 9.886655e-03 0.000000e+00
 -2.337786e-02 1.876070e-01 0.000000e+00
 -5.034731e-02 1.942725e-01 0.000000e+00
 -1.921449e-01 7.902459e-02 0.000000e+00
 -8.173875e-02 1.631418e-03 0.000000e+00
 0.000000e+00 0.000000e+00 0.000000e+00
 -1.109481e-01 1.323379e-02 0.000000e+00
 -4.176690e-02 8.654414e-02 0.000000e+00
 -3.402128e-02 1.053018e-01 0.000000e+00
 -4.350111e-02 9.204404e-02 0.000000e+00
 -1.452292e-02 8.516817e-02 0.000000e+00
 -1.978460e-02 1.008960e-01 0.000000e+00
 -2.534570e-02 8.824532e-02 0.000000e+00
 5.053474e-05 1.660506e-01 0.000000e+00
 2.574621e-03 1.665363e-01 0.000000e+00
 9.820248e-04 1.637610e-01 0.000000e+00
 -1.010680e-01 6.310843e-02 0.000000e+00
 -1.036848e-01 8.621712e-02 0.000000e+00
 -1.251887e-01 8.054483e-02 0.000000e+00
 -1.244275e-02 1.432503e-01 0.000000e+00
 -1.363556e-02 1.457708e-01 0.000000e+00
 -1.837197e-03 6.104340e-02 0.000000e+00
 -1.548201e-03 6.578737e-02 0.000000e+00
 0.000000e+00 0.000000e+00 0.000000e+00
 -1.957126e-02 1.345796e-01 0.000000e+00
 -2.774721e-02 1.244269e-01 0.000000e+00
 -8.263386e-02 9.040635e-02 0.000000e+00
 -6.168600e-02 8.334982e-02 0.000000e+00
 -2.483724e-02 1.136945e-01 0.000000e+00
 -3.153679e-02 9.845614e-02 0.000000e+00
 -2.314940e-02 1.091135e-01 0.000000e+00
 -1.326422e-01 1.995668e-02 0.000000e+00
 -1.266860e-01 2.376090e-02 0.000000e+00
 -2.184383e-01 2.252626e-02 0.000000e+00
 -2.105814e-01 1.730764e-02 0.000000e+00
 -1.977654e-01 2.498330e-02 0.000000e+00
 -1.116805e-01 3.200741e-02 0.000000e+00
 -9.730172e-02 2.403532e-02 0.000000e+00
 -1.820188e-01 3.448429e-02 0.000000e+00
 -2.223902e-01 3.251052e-02 0.000000e+00
 -7.898213e-02 1.554041e-02 0.000000e+00
 -1.569078e-01 8.517126e-02 0.000000e+00
 -1.641852e-01 1.197028e-01 0.000000e+00
 0.000000e+00 0.000000e+00 0.000000e+00
 -1.665585e-02 1.455567e-01 0.000000e+00
 -1.244339e-02 1.593658e-01 0.000000e+00
 -6.588202e-03 1.635481e-01 0.000000e+00
 -9.141904e-03 1.715026e-01 0.000000e+00
 -5.002164e-03 1.341589e-01 0.000000e+00
 -4.438375e-03 1.402352e-01 0.000000e+00
 -1.850494e-01 1.460022e-02 0.000000e+00
 -1.797718e-01 2.120274e-02 0.000000e+00
 -1.958014e-01 1.438374e-02 0.000000e+00
 -1.494117e-01 2.880660e-02 0.000000e+00
 -1.826668e-01 2.569115e-02 0.000000e+00
 -1.656603e-01 2.621903e-02 0.000000e+00
 -1.490003e-01 1.190563e-02 0.000000e+00
 -1.548534e-01 1.528572e-02 0.000000e+00
 -1.858321e-01 8.767227e-03 0.000000e+00
 -2.019244e-01 1.364647e-02 0.000000e+00
 -1.621619e-01 1.627032e-02 0.000000e+00
 -6.106132e-02 3.422774e-02 0.000000e+00
 -7.775313e-02 2.009852e-01 0.000000e+00
 -8.532983e-02 1.817453e-01 0.000000e+00
 -5.546646e-04 1.615983e-01 0.000000e+00
 -1.499330e-03 1.673352e-01 0.000000e+00
 -1.981920e-03 1.700088e-01 0.000000e+00
 3.282408e-04 1.309097e-01 0.000000e+00
 -9.523432e-03 1.799640e-01 0.000000e+00
 -3.091883e-03 1.720793e-01 0.000000e+00
 -8.189494e-02 7.705260e-03 0.000000e+00
 -8.406686e-02 5.238666e-03 0.000000e+00
 -8.524016e-02 7.723925e-03 0.000000e+00
 -2.946019e-03 1.185080e-01 0.000000e+00
 -5.478397e-03 1.474048e-01 0.000000e+00
 -2.161164e-03 1.454354e-01 0.000000e+00
 -2.719691e-03 1.589752e-01 0.000000e+00
 -3.952286e-03 1.611867e-01 0.000000e+00
 -6.870485e-03 1.348031e-01 0.000000e+00
 -5.238131e-03 1.380805e-01 0.000000e+00
 -6.097628e-03 1.577998e-01 0.000000e+00
 -1.215493e-01 2.410686e-02 0.000000e+00
 -1.289716e-01 1.983430e-02 0.000000e+00
 -1.424156e-01 1.107054e-02 0.000000e+00
 -1.350708e-01 1.006824e-02 0.000000e+00
 -1.377948e-01 1.571074e-02 0.000000e+00
 2.915770e-03 1.599421e-01 0.000000e+00
 1.277799e-03 1.448696e-01 0.000000e+00
 -5.009207e-03 1.573117e-01 0.000000e+00
 -4.684058e-03 1.658736e-01 0.000000e+00
 -7.124930e-02 1.419398e-01 0.000000e+00
 -9.854828e-02 1.451351e-01 0.000000e+00
 -1.353836e-01 1.471112e-01 0.000000e+00
 -9.838427e-02 1.128186e-01 0.000000e+00
 -2.245897e-01 2.211762e-02 0.000000e+00
 -1.110989e-01 2.839749e-02 0.000000e+00
 -1.799776e-01 9.575289e-03 0.000000e+00
 -1.142113e-01 2.763694e-02 0.000000e+00
 -9.073902e-02 3.403079e-02 0.000000e+00