<?xml version="1.0"?>
<VTKFile type="UnstructuredGrid"  version="0.1"  >
<UnstructuredGrid>
<Piece  NumberOfPoints="505" NumberOfCells="928">
<Points>
<DataArray  type="Float32"  NumberOfComponents="3"  format="ascii">
0 0 0
1 0 0
0 1 0
1 0.5 0
0.5 0.5 0
0.5 1 0
0.1 0 0
0.2 0 0
0.3 0 0
0.4 0 0
0.5 0 0
0.6 0 0
0.7 0 0
0.8 0 0
0.9 0 0
0 0.9 0
0 0.8 0
0 0.7 0
0 0.6 0
0 0.5 0
0 0.4 0
0 0.3 0
0 0.2 0
0 0.1 0
0.9 0.5 0
0.8 0.5 0
0.7 0.5 0
0.6 0.5 0
0.5 0.6 0
0.5 0.7 0
0.5 0.8 0
0.5 0.9 0
0.1 1 0
0.2 1 0
0.3 1 0
0.4 1 0
1 0.1 0
1 0.2 0
1 0.3 0
1 0.4 0
0.300178 0.296564 0
0.247566 0.664879 0
0.639694 0.259804 0
0.06564 0.06472 0
0.04439 0.954144 0
0.932418 0.064715 0
0.951013 0.456419 0
0.437622 0.939659 0
0.195334 0.464441 0
0.483382 0.329596 0
0.834786 0.236295 0
0.307228 0.81139 0
0.178229 0.173372 0
0.366998 0.134199 0
0.547485 0.14214 0
0.124832 0.74927 0
0.160163 0.896658 0
0.342556 0.535243 0
0.147651 0.342018 0
0.729803 0.127878 0
0.725981 0.357775 0
0.121369 0.600441 0
0.372954 0.70814 0
0.908503 0.151525 0
0.89851 0.333305 0
0.556275 0.400898 0
0.259184 0.092178 0
0.46329 0.194362 0
0.423773 0.869712 0
0.22823 0.818162 0
0.081292 0.144905 0
0.082979 0.831935 0
0.549999 0.065419 0
0.371537 0.407588 0
0.642628 0.097865 0
0.459835 0.086595 0
0.108565 0.418567 0
0.273082 0.902112 0
0.256598 0.556659 0
0.11951 0.509541 0
0.234147 0.370527 0
0.097453 0.253261 0
0.638438 0.342389 0
0.554656 0.224779 0
0.373432 0.237603 0
0.339663 0.62579 0
0.27079 0.747786 0
0.733958 0.266592 0
0.928527 0.244458 0
0.853116 0.071497 0
0.818426 0.404817 0
0.280194 0.200604 0
0.417859 0.565185 0
0.147241 0.079056 0
0.389149 0.789957 0
0.42808 0.654642 0
0.343469 0.059202 0
0.086765 0.684153 0
0.162043 0.675011 0
0.809252 0.14201 0
0.364337 0.928607 0
0.077532 0.916553 0
0.159064 0.807906 0
0.302124 0.454032 0
0.205909 0.272176 0
0.449664 0.407415 0
0.66041 0.423241 0
0.562201 0.303789 0
0.802658 0.320211 0
0.614551 0.182931 0
0.390944 0.331035 0
0.687136 0.18846 0
0.070577 0.342498 0
0.741087 0.437361 0
0.176989 0.547528 0
0.710251 0.07409 0
0.192845 0.608574 0
0.171114 0.398277 0
0.058959 0.753084 0
0.904 0.425508 0
0.438039 0.730373 0
0.057223 0.475897 0
0.058502 0.552106 0
0.330493 0.750997 0
0.312295 0.699131 0
0.684882 0.307111 0
0.053312 0.627311 0
0.198798 0.743695 0
0.392326 0.069953 0
0.351519 0.860283 0
0.397134 0.477694 0
0.319385 0.371198 0
0.767351 0.069505 0
0.441954 0.271171 0
0.759504 0.192785 0
0.855661 0.457701 0
0.500847 0.264652 0
0.916209 0.0323575 0
0.966209 0.0323575 0
0.95 0 0
0.578137 0.450449 0
0.528137 0.450449 0
0.55 0.5 0
0.03282 0.08236 0
0.03282 0.03236 0
0 0.05 0
0.502969 0.404157 0
0.474832 0.453708 0
0.468811 0.91983 0
0.468811 0.96983 0
0.5 0.95 0
0.072195 0.977072 0
0.022195 0.977072 0
0.05 1 0
0.022195 0.927072 0
0 0.95 0
0.060961 0.935348 0
0.038766 0.908276 0
0.106441 0.071888 0
0.123621 0.039528 0
0.08282 0.03236 0
0.0414895 0.815967 0
0.0414895 0.865968 0
0 0.85 0
0.173621 0.039528 0
0.15 0 0
0.05 0 0
0.301327 0.07569 0
0.321735 0.029601 0
0.279592 0.046089 0
0.070969 0.792509 0
0.0294795 0.776542 0
0.0294795 0.726542 0
0 0.75 0
0.114267 0.111981 0
0.073466 0.104813 0
0.229592 0.046089 0
0.25 0 0
0.371735 0.029601 0
0.35 0 0
0.479917 0.0432975 0
0.429918 0.0432975 0
0.45 0 0
0.461562 0.140479 0
0.413416 0.110397 0
0.415144 0.16428 0
0.574999 0.0327095 0
0.525 0.0327095 0
0.55 0 0
0.596313 0.081642 0
0.621314 0.0489325 0
0.927507 0.440964 0
0.902 0.462754 0
0.925507 0.47821 0
0.0700385 0.655732 0
0.026656 0.663655 0
0.0433825 0.692076 0
0.026656 0.613655 0
0 0.65 0
0.276766 0.370862 0
0.309781 0.333881 0
0.267162 0.333545 0
0.458929 0.582593 0
0.458929 0.532593 0
0.5 0.55 0
0.422969 0.609913 0
0.46404 0.627321 0
0.43306 0.692508 0
0.46902 0.715186 0
0.46404 0.677321 0
0.46902 0.765186 0
0.5 0.75 0
0.180082 0.948329 0
0.130082 0.948329 0
0.15 1 0
0.87983 0.441605 0
0.87783 0.478851 0
0.975507 0.42821 0
0.975507 0.47821 0
1 0.45 0
0.676439 0.0859775 0
0.705125 0.037045 0
0.671314 0.0489325 0
0.779756 0.421089 0
0.770544 0.46868 0
0.809213 0.452408 0
0.738801 0.0717975 0
0.733675 0.0347525 0
0.95 0.5 0
0.720544 0.46868 0
0.75 0.5 0
0.029251 0.526053 0
0.029251 0.576053 0
0 0.55 0
0.089006 0.530824 0
0.0899355 0.576273 0
0.12044 0.554991 0
0.461886 0.884856 0
0.461886 0.834856 0
0.5 0.85 0
0.089571 0.380533 0
0.0352885 0.371249 0
0.0542825 0.409284 0
0.918515 0.197991 0
0.964263 0.222229 0
0.954252 0.175762 0
0.630205 0.46162 0
0.680205 0.46162 0
0.65 0.5 0
0.0352885 0.321249 0
0 0.35 0
0.0487265 0.226631 0
0.0487265 0.276631 0
0 0.25 0
0.286541 0.951056 0
0.236541 0.951056 0
0.25 1 0
0.382169 0.964303 0
0.332168 0.964303 0
0.35 1 0
0.966209 0.0823575 0
1 0.05 0
0.876558 0.0357485 0
0.826558 0.0357485 0
0.85 0 0
0.710547 0.227526 0
0.663415 0.224132 0
0.686826 0.263198 0
0.964263 0.272229 0
1 0.25 0
0.40098 0.934133 0
0.418811 0.96983 0
0.45 1 0
0.326813 0.219104 0
0.290186 0.248584 0
0.336805 0.267084 0
0.243052 0.23639 0
0.253043 0.28437 0
0.224721 0.582616 0
0.220205 0.636726 0
0.252082 0.610769 0
0.92046 0.10812 0
0.954252 0.125762 0
0.66166 0.32475 0
0.662288 0.283458 0
0.639066 0.301096 0
0.949255 0.366653 0
0.949255 0.316653 0
1 0.35 0
0.291542 0.723459 0
0.27993 0.682005 0
0.259178 0.706333 0
0.394055 0.89916 0
0.430698 0.904686 0
0.531524 0.28422 0
0.492115 0.297124 0
0.522791 0.316692 0
0.040646 0.122453 0
0.040646 0.172453 0
0 0.15 0
1 0.15 0
0.151681 0.262718 0
0.192069 0.222774 0
0.137841 0.213317 0
0.558428 0.264284 0
0.600947 0.281797 0
0.597175 0.242291 0
0.508973 0.20957 0
0.551071 0.183459 0
0.505387 0.168251 0
0.118847 0.906605 0
0.088766 0.958276 0
0.3123 0.881198 0
0.329373 0.835836 0
0.290155 0.856751 0
0.18042 0.709353 0
0.223182 0.704287 0
0.204805 0.669945 0
0.114037 0.464054 0
0.157422 0.486991 0
0.15195 0.441504 0
0.279361 0.505346 0
0.248729 0.459236 0
0.225966 0.51055 0
0.423399 0.442555 0
0.448567 0.488847 0
0.892767 0.068106 0
0.65 0 0
0.901255 0.379406 0
0.952 0.412754 0
0.858877 0.146767 0
0.822019 0.189153 0
0.871644 0.19391 0
0.14825 0.528535 0
0.186162 0.505985 0
0.178931 0.775801 0
0.161815 0.746482 0
0.141948 0.778588 0
0.29813 0.591225 0
0.34111 0.580516 0
0.299577 0.545951 0
0.913519 0.288882 0
0.881657 0.240376 0
0.866648 0.2848 0
0.664882 0.143162 0
0.708469 0.158169 0
0.686215 0.112871 0
0.768308 0.293401 0
0.818722 0.278253 0
0.784372 0.251443 0
0.407693 0.254387 0
0.452622 0.232766 0
0.418361 0.215983 0
0.559238 0.352343 0
0.519829 0.365247 0
0.269689 0.146391 0
0.323596 0.167402 0
0.313091 0.113188 0
0.367897 0.0645775 0
0.396163 0.0349765 0
0.220028 0.321352 0
0.17678 0.307097 0
0.190899 0.356272 0
0.584604 0.203855 0
0.581018 0.162535 0
0.250656 0.860137 0
0.267729 0.814776 0
0.359821 0.770477 0
0.31886 0.781193 0
0.348189 0.800674 0
0.124404 0.679582 0
0.141706 0.637726 0
0.104067 0.642297 0
0.216622 0.899385 0
0.203213 0.085617 0
0.162735 0.126214 0
0.218707 0.132775 0
0.0893725 0.199083 0
0.129761 0.159139 0
0.121022 0.819921 0
0.103905 0.790602 0
0.193647 0.813034 0
0.159614 0.852282 0
0.194196 0.85741 0
0.650843 0.185696 0
0.628589 0.140398 0
0.504917 0.076007 0
0.50366 0.114367 0
0.548742 0.103779 0
0.378761 0.595487 0
0.380208 0.550214 0
0.466523 0.368506 0
0.783675 0.0347525 0
0.75 0 0
0.595056 0.120002 0
0.20263 0.384402 0
0.183224 0.431359 0
0.214741 0.417484 0
0.084015 0.29788 0
0.109114 0.342258 0
0.122552 0.29764 0
0.370334 0.82512 0
0.387646 0.864998 0
0.406461 0.829835 0
0.355164 0.351116 0
0.345461 0.389393 0
0.38124 0.369312 0
0.177444 0.641792 0
0.157107 0.604507 0
0.0286115 0.437949 0
0.0286115 0.487949 0
0 0.45 0
0.184917 0.578051 0
0.216794 0.552094 0
0.310754 0.412615 0
0.268135 0.41228 0
0.13984 0.408422 0
0.159382 0.370147 0
0.128108 0.380293 0
0.784378 0.167398 0
0.797145 0.21454 0
0.649424 0.382815 0
0.693196 0.390508 0
0.682209 0.350082 0
0.471401 0.267911 0
0.482069 0.229507 0
0.600319 0.323089 0
0.597356 0.371644 0
0.370215 0.185901 0
0.420304 0.369225 0
0.410601 0.407502 0
0.5 0.65 0
0.293615 0.645334 0
0.325979 0.66246 0
0.342624 0.703635 0
0.356309 0.666965 0
0.24951 0.782974 0
0.289009 0.779588 0
0.810542 0.362514 0
0.76432 0.338993 0
0.772204 0.381296 0
0.70942 0.286852 0
0.705431 0.332443 0
0.729969 0.312184 0
0.831184 0.106754 0
0.88081 0.111511 0
0.700748 0.430301 0
0.733534 0.397568 0
0.850584 0.326758 0
0.229212 0.186988 0
0.407496 0.52144 0
0.369845 0.506468 0
0.413594 0.760165 0
0.405497 0.719256 0
0.381051 0.749049 0
0.444574 0.794979 0
0.383872 0.640216 0
0.400517 0.681391 0
0.355233 0.0967005 0
0.42608 0.078274 0
0.379662 0.102076 0
0.055907 0.589708 0
0.0873405 0.613876 0
0.072862 0.718619 0
0.0918955 0.751177 0
0.105798 0.716711 0
0.234794 0.74574 0
0.213514 0.780928 0
0.143437 0.712141 0
0.72332 0.190623 0
0.744653 0.160332 0
0.788301 0.105758 0
0.748577 0.0986915 0
0.769527 0.134944 0
0.357928 0.894445 0
0.318709 0.915359 0
0.0802555 0.874244 0
0.121571 0.864297 0
0.32234 0.494638 0
0.349629 0.465863 0
0.384335 0.442641 0
0.336831 0.43081 0
0.608343 0.412069 0
0.527752 0.244716 0
0.858468 0.369061 0
0.627123 0.221367 0
0.382188 0.284319 0
0.345561 0.3138 0
0.437163 0.330315 0
0.746731 0.229689 0
0.149179 0.573985 0
0.720027 0.100984 0
0.810234 0.070501 0
0.861213 0.415162 0
0.827831 0.478851 0
0.85 0.5 0
0.082894 0.447232 0
0.0883665 0.492719 0
0.0578625 0.514002 0
0.300642 0.749391 0
0.351723 0.729569 0
0.321394 0.725064 0
0.416449 0.301103 0
0.462668 0.300384 0
0.837044 0.431259 0
</DataArray>
</Points>
<Cells>
<DataArray  type="UInt32"  Name="connectivity"  format="ascii">
1 138 139 
14 137 139 
45 137 138 
137 138 139 
4 141 142 
27 140 142 
65 140 141 
140 141 142 
0 144 145 
23 143 145 
43 143 144 
143 144 145 
4 141 147 
65 141 146 
105 146 147 
141 146 147 
5 149 150 
31 148 150 
47 148 149 
148 149 150 
2 152 153 
32 151 153 
44 151 152 
151 152 153 
2 152 155 
15 154 155 
44 152 154 
152 154 155 
15 154 157 
44 154 156 
101 156 157 
154 156 157 
6 159 160 
43 158 160 
93 158 159 
158 159 160 
15 162 163 
16 161 163 
71 161 162 
161 162 163 
6 159 165 
7 164 165 
93 159 164 
159 164 165 
[...]
<PointData  Vectors="u"> 
<DataArray  type="Float32"  Name="u"  NumberOfComponents="3" format="ascii">
 0.000000e+00 0.000000e+00 0.000000e+00
 1.441109e-01 -3.056355e-02 0.000000e+00
 2.498131e-02 -1.425541e-01 0.000000e+00
 1.357513e-01 2.552727e-02 0.000000e+00
 0.000000e+00 0.000000e+00 0.000000e+00
 -2.941111e-02 -1.579784e-01 0.000000e+00
 0.000000e+00 0.000000e+00 0.000000e+00
 0.000000e+00 0.000000e+00 0.000000e+00
 0.000000e+00 0.000000e+00 0.000000e+00
 0.000000e+00 0.000000e+00 0.000000e+00
 0.000000e+00 0.000000e+00 0.000000e+00
 0.000000e+00 0.000000e+00 0.000000e+00
 0.000000e+00 0.000000e+00 0.000000e+00
 0.000000e+00 0.000000e+00 0.000000e+00
 0.000000e+00 0.000000e+00 0.000000e+00
 0.000000e+00 0.000000e+00 0.000000e+00
 0.000000e+00 0.000000e+00 0.000000e+00
 0.000000e+00 0.000000e+00 0.000000e+00
 0.000000e+00 0.000000e+00 0.000000e+00
 0.000000e+00 0.000000e+00 0.000000e+00
 0.000000e+00 0.000000e+00 0.000000e+00
 0.000000e+00 0.000000e+00 0.000000e+00
 0.000000e+00 0.000000e+00 0.000000e+00
 0.000000e+00 0.000000e+00 0.000000e+00
 0.000000e+00 0.000000e+00 0.000000e+00
 0.000000e+00 0.000000e+00 0.000000e+00
 0.000000e+00 0.000000e+00 0.000000e+00
 0.000000e+00 0.000000e+00 0.000000e+00
 0.000000e+00 0.000000e+00 0.000000e+00
 0.000000e+00 0.000000e+00 0.000000e+00
 0.000000e+00 0.000000e+00 0.000000e+00
 0.000000e+00 0.000000e+00 0.000000e+00
 1.849798e-02 -2.822198e-01 0.000000e+00
 4.844861e-03 -3.352528e-01 0.000000e+00
 -2.036974e-03 -3.397598e-01 0.000000e+00
 -1.769889e-02 -2.913155e-01 0.000000e+00
 2.898856e-01 -2.063528e-02 0.000000e+00
 3.360923e-01 -5.533814e-03 0.000000e+00
 3.364653e-01 2.979225e-03 0.000000e+00
 2.898949e-01 2.015425e-02 0.000000e+00
 1.701435e-01 -1.761601e-01 0.000000e+00
 3.288024e-02 -3.464705e-01 0.000000e+00
 3.548424e-01 -3.444844e-02 0.000000e+00
 1.208500e-02 -1.222716e-02 0.000000e+00
 3.283349e-02 -2.043714e-01 0.000000e+00
 2.545905e-01 -2.145264e-02 0.000000e+00
 2.050753e-01 2.967809e-02 0.000000e+00
 -2.831303e-02 -2.545733e-01 0.000000e+00
 7.051060e-02 -2.717838e-01 0.000000e+00
 3.398227e-01 -1.531993e-01 0.000000e+00
 3.499008e-01 -5.199585e-03 0.000000e+00
 8.331793e-03 -3.531846e-01 0.000000e+00
 8.205849e-02 -8.383921e-02 0.000000e+00
 1.987253e-01 -5.494519e-02 0.000000e+00
 2.918679e-01 -3.337667e-02 0.000000e+00
 1.009140e-02 -3.113537e-01 0.000000e+00
 1.000385e-02 -3.321655e-01 0.000000e+00
 1.010642e-01 -3.624479e-01 0.000000e+00
 5.938942e-02 -1.861339e-01 0.000000e+00
 3.196358e-01 -8.118005e-03 0.000000e+00
 3.457536e-01 -6.432176e-03 0.000000e+00
 2.111339e-02 -2.841956e-01 0.000000e+00
 1.909109e-02 -3.478378e-01 0.000000e+00
 3.337961e-01 -9.324515e-03 0.000000e+00
 3.408398e-01 4.666139e-03 0.000000e+00
 3.611248e-01 -7.706585e-02 0.000000e+00
 1.170696e-01 -3.411418e-02 0.000000e+00
 2.741369e-01 -7.567104e-02 0.000000e+00
 -6.632102e-03 -2.827537e-01 0.000000e+00
 1.027327e-02 -3.479069e-01 0.000000e+00
 2.418638e-02 -4.959126e-02 0.000000e+00
 6.657136e-03 -2.738061e-01 0.000000e+00
 2.172008e-01 -9.426074e-03 0.000000e+00
 2.198455e-01 -2.864989e-01 0.000000e+00
 2.825873e-01 -1.023630e-02 0.000000e+00
 2.166290e-01 -2.232841e-02 0.000000e+00
 3.295110e-02 -2.070878e-01 0.000000e+00
 2.547979e-03 -3.474148e-01 0.000000e+00
 6.741557e-02 -3.312415e-01 0.000000e+00
 3.005121e-02 -2.545383e-01 0.000000e+00
 1.125117e-01 -2.253616e-01 0.000000e+00
 3.302228e-02 -1.131327e-01 0.000000e+00
 3.652835e-01 -2.963225e-02 0.000000e+00
 3.272131e-01 -5.989406e-02 0.000000e+00
 2.243709e-01 -1.240101e-01 0.000000e+00
 4.713250e-02 -3.641401e-01 0.000000e+00
 1.796620e-02 -3.533143e-01 0.000000e+00
 3.554325e-01 -1.285005e-02 0.000000e+00
 3.443482e-01 -2.276212e-03 0.000000e+00
 2.637993e-01 -5.012024e-03 0.000000e+00
 3.013515e-01 2.340844e-03 0.000000e+00
 1.525739e-01 -1.041859e-01 0.000000e+00
 6.330795e-02 -3.566454e-01 0.000000e+00
 5.041384e-02 -2.557119e-02 0.000000e+00
 5.778324e-03 -3.283278e-01 0.000000e+00
 1.755137e-02 -2.997239e-01 0.000000e+00
 1.334140e-01 -1.557079e-02 0.000000e+00
 8.401287e-03 -2.637828e-01 0.000000e+00
 2.065508e-02 -3.226956e-01 0.000000e+00
 3.318376e-01 -6.509032e-03 0.000000e+00
 -9.255002e-03 -3.300105e-01 0.000000e+00
 1.952330e-02 -2.691267e-01 0.000000e+00
 1.033007e-02 -3.332137e-01 0.000000e+00
 1.350339e-01 -3.039511e-01 0.000000e+00
 1.008529e-01 -1.525509e-01 0.000000e+00
 3.176669e-01 -2.630329e-01 0.000000e+00
 2.823866e-01 -3.665402e-03 0.000000e+00
 3.622006e-01 -7.733030e-02 0.000000e+00
 3.502726e-01 -2.665274e-03 0.000000e+00
 3.279431e-01 -3.100034e-02 0.000000e+00
 2.528974e-01 -2.021668e-01 0.000000e+00
 3.401946e-01 -1.799666e-02 0.000000e+00
 1.832699e-02 -1.360519e-01 0.000000e+00
 2.449468e-01 5.886869e-04 0.000000e+00
 4.510619e-02 -2.993962e-01 0.000000e+00
 2.589792e-01 -3.867671e-03 0.000000e+00
 3.690535e-02 -3.221799e-01 0.000000e+00
 6.819651e-02 -2.274566e-01 0.000000e+00
 3.285949e-03 -2.211809e-01 0.000000e+00
 2.719873e-01 1.236169e-02 0.000000e+00
 6.234029e-03 -2.610882e-01 0.000000e+00
 1.021546e-02 -1.660204e-01 0.000000e+00
 8.328297e-03 -1.891499e-01 0.000000e+00
 1.548413e-02 -3.550942e-01 0.000000e+00
 2.636976e-02 -3.580305e-01 0.000000e+00
 3.608666e-01 -1.961833e-02 0.000000e+00
 5.155067e-03 -1.927155e-01 0.000000e+00
 1.649855e-02 -3.412882e-01 0.000000e+00
 1.688084e-01 -1.885282e-02 0.000000e+00
 -5.674419e-04 -3.434736e-01 0.000000e+00
 1.840807e-01 -3.638814e-01 0.000000e+00
 1.792131e-01 -2.416416e-01 0.000000e+00
 2.545234e-01 -2.639870e-03 0.000000e+00
 2.848842e-01 -1.325508e-01 0.000000e+00
 3.453239e-01 -9.985580e-03 0.000000e+00
 1.925325e-01 2.668021e-03 0.000000e+00
 3.210434e-01 -1.010375e-01 0.000000e+00
 1.679071e-01 -1.305001e-02 0.000000e+00
 1.792043e-01 -3.105034e-02 0.000000e+00
 0.000000e+00 0.000000e+00 0.000000e+00
 2.397129e-01 -1.935709e-02 0.000000e+00
 2.952152e-01 -1.193149e-01 0.000000e+00
 0.000000e+00 0.000000e+00 0.000000e+00
 4.537154e-03 -1.025249e-02 0.000000e+00
 1.938946e-03 -1.917164e-03 0.000000e+00
 0.000000e+00 0.000000e+00 0.000000e+00
 3.661804e-01 -1.781871e-01 0.000000e+00
 2.938148e-01 -2.788271e-01 0.000000e+00
 -2.003474e-02 -1.717805e-01 0.000000e+00
 -3.129479e-02 -1.849780e-01 0.000000e+00
 0.000000e+00 0.000000e+00 0.000000e+00
 2.676843e-02 -2.480196e-01 0.000000e+00
 2.879779e-02 -1.638284e-01 0.000000e+00
 2.911999e-02 -2.066978e-01 0.000000e+00
 1.913672e-02 -1.281169e-01 0.000000e+00
 0.000000e+00 0.000000e+00 0.000000e+00
 2.604088e-02 -2.400478e-01 0.000000e+00
 1.468949e-02 -1.872375e-01 0.000000e+00
 2.878334e-02 -1.955312e-02 0.000000e+00
 2.490294e-02 -7.983693e-03 0.000000e+00
 1.051388e-02 -4.760887e-03 0.000000e+00
 2.035782e-03 -1.787268e-01 0.000000e+00
 4.548282e-03 -1.847252e-01 0.000000e+00
 0.000000e+00 0.000000e+00 0.000000e+00
 4.228326e-02 -8.797132e-03 0.000000e+00
 0.000000e+00 0.000000e+00 0.000000e+00
 0.000000e+00 0.000000e+00 0.000000e+00
 1.302799e-01 -2.425904e-02 0.000000e+00
 7.774576e-02 -5.320061e-03 0.000000e+00
 8.903568e-02 -1.110263e-02 0.000000e+00
 4.282171e-03 -2.498117e-01 0.000000e+00
 1.006541e-03 -1.361914e-01 0.000000e+00
 1.225325e-03 -1.331255e-01 0.000000e+00
 0.000000e+00 0.000000e+00 0.000000e+00
 3.927856e-02 -4.016506e-02 0.000000e+00
 1.881661e-02 -2.871482e-02 0.000000e+00
 6.921466e-02 -1.139941e-02 0.000000e+00
 0.000000e+00 0.000000e+00 0.000000e+00
 9.066789e-02 -4.833343e-03 0.000000e+00
 0.000000e+00 0.000000e+00 0.000000e+00
 1.521879e-01 -6.639659e-03 0.000000e+00
 1.381600e-01 -7.812394e-03 0.000000e+00
 0.000000e+00 0.000000e+00 0.000000e+00
 2.542651e-01 -4.727212e-02 0.000000e+00
 2.143845e-01 -3.753296e-02 0.000000e+00
 2.371594e-01 -6.752702e-02 0.000000e+00
 1.416723e-01 -2.473781e-03 0.000000e+00
 1.340299e-01 -3.400796e-03 0.000000e+00
 0.000000e+00 0.000000e+00 0.000000e+00
 2.535574e-01 -1.041092e-02 0.000000e+00
 1.936539e-01 -3.628462e-03 0.000000e+00
 2.424994e-01 1.969282e-02 0.000000e+00
 1.831783e-01 8.524674e-03 0.000000e+00
 1.258431e-01 1.431309e-02 0.000000e+00
 6.948796e-03 -2.321998e-01 0.000000e+00
 1.446142e-03 -1.183959e-01 0.000000e+00
 2.696209e-03 -1.756030e-01 0.000000e+00
 1.832128e-03 -1.136485e-01 0.000000e+00
 0.000000e+00 0.000000e+00 0.000000e+00
 1.440572e-01 -2.338543e-01 0.000000e+00
 1.763327e-01 -2.077575e-01 0.000000e+00
 1.414474e-01 -2.031522e-01 0.000000e+00
 2.327924e-02 -2.514416e-01 0.000000e+00
 7.725999e-02 -3.001116e-01 0.000000e+00
 0.000000e+00 0.000000e+00 0.000000e+00
 3.275986e-02 -3.266344e-01 0.000000e+00
 9.245831e-03 -2.050596e-01 0.000000e+00
 1.041490e-02 -2.791834e-01 0.000000e+00
 2.700648e-03 -1.646174e-01 0.000000e+00
 4.941278e-03 -1.905419e-01 0.000000e+00
 1.613215e-03 -1.602257e-01 0.000000e+00
 0.000000e+00 0.000000e+00 0.000000e+00
 7.390320e-03 -3.323604e-01 0.000000e+00
 1.337579e-02 -3.116348e-01 0.000000e+00
 9.671469e-03 -3.191746e-01 0.000000e+00
 2.389366e-01 6.440157e-03 0.000000e+00
 1.140668e-01 1.750566e-03 0.000000e+00
 2.566956e-01 2.810278e-02 0.000000e+00
 1.582105e-01 3.028392e-02 0.000000e+00
 2.113591e-01 3.261479e-02 0.000000e+00
 2.732906e-01 -6.424739e-03 0.000000e+00
 1.690286e-01 -1.165064e-03 0.000000e+00
 1.988694e-01 -2.523813e-03 0.000000e+00
 2.773971e-01 9.924044e-04 0.000000e+00
 1.500940e-01 6.713143e-04 0.000000e+00
 2.061562e-01 1.368709e-03 0.000000e+00
 2.569846e-01 -3.066894e-03 0.000000e+00
 1.606624e-01 -9.158970e-04 0.000000e+00
 0.000000e+00 0.000000e+00 0.000000e+00
 1.494382e-01 6.702008e-04 0.000000e+00
 0.000000e+00 0.000000e+00 0.000000e+00
 2.971075e-03 -1.102584e-01 0.000000e+00
 2.453398e-03 -1.174846e-01 0.000000e+00
 0.000000e+00 0.000000e+00 0.000000e+00
 1.775019e-02 -2.322592e-01 0.000000e+00
 1.507939e-02 -2.463544e-01 0.000000e+00
 2.556304e-02 -2.707804e-01 0.000000e+00
 -6.464799e-03 -1.894042e-01 0.000000e+00
 -3.885692e-04 -1.843975e-01 0.000000e+00
 0.000000e+00 0.000000e+00 0.000000e+00
 2.577561e-02 -1.727789e-01 0.000000e+00
 5.812829e-03 -9.195308e-02 0.000000e+00
 1.097529e-02 -1.394245e-01 0.000000e+00
 3.422415e-01 -5.966221e-03 0.000000e+00
 3.403673e-01 -3.797054e-03 0.000000e+00
 3.353702e-01 -8.213931e-03 0.000000e+00
 1.787595e-01 4.580811e-04 0.000000e+00
 1.744186e-01 7.579630e-04 0.000000e+00
 0.000000e+00 0.000000e+00 0.000000e+00
 6.065809e-03 -7.844006e-02 0.000000e+00
 0.000000e+00 0.000000e+00 0.000000e+00
 1.066648e-02 -6.524429e-02 0.000000e+00
 1.042588e-02 -8.334475e-02 0.000000e+00
 0.000000e+00 0.000000e+00 0.000000e+00
 -5.065339e-04 -3.429033e-01 0.000000e+00
 3.099076e-03 -3.416581e-01 0.000000e+00
 1.551268e-03 -3.413186e-01 0.000000e+00
 -1.360833e-02 -3.115439e-01 0.000000e+00
 -5.337202e-03 -3.352233e-01 0.000000e+00
 -7.771262e-03 -3.268749e-01 0.000000e+00
 2.750383e-01 -2.493077e-02 0.000000e+00
 2.129781e-01 -3.182501e-02 0.000000e+00
 1.731324e-01 -3.633470e-03 0.000000e+00
 1.685670e-01 -1.264723e-03 0.000000e+00
 0.000000e+00 0.000000e+00 0.000000e+00
 3.503270e-01 -1.660840e-02 0.000000e+00
 3.472417e-01 -2.554749e-02 0.000000e+00
 3.562509e-01 -2.151517e-02 0.000000e+00
 3.409829e-01 4.401483e-04 0.000000e+00
 3.392662e-01 -1.401907e-03 0.000000e+00
 -1.744450e-02 -3.040727e-01 0.000000e+00
 -2.408112e-02 -2.727999e-01 0.000000e+00
 -2.881148e-02 -2.172443e-01 0.000000e+00
 1.875892e-01 -1.152328e-01 0.000000e+00
 1.620631e-01 -1.389212e-01 0.000000e+00
 1.991133e-01 -1.513358e-01 0.000000e+00
 1.273967e-01 -1.296518e-01 0.000000e+00
 1.342047e-01 -1.648961e-01 0.000000e+00
 5.034103e-02 -3.269127e-01 0.000000e+00
 3.596324e-02 -3.358556e-01 0.000000e+00
 4.780862e-02 -3.415095e-01 0.000000e+00
 3.099407e-01 -1.434829e-02 0.000000e+00
 3.170016e-01 -1.442662e-02 0.000000e+00
 3.633119e-01 -2.418497e-02 0.000000e+00
 3.600075e-01 -2.733829e-02 0.000000e+00
 3.641792e-01 -3.449285e-02 0.000000e+00
 3.226228e-01 1.171901e-02 0.000000e+00
 3.382249e-01 4.838615e-03 0.000000e+00
 3.240377e-01 9.383105e-03 0.000000e+00
 2.197223e-02 -3.557252e-01 0.000000e+00
 3.060073e-02 -3.542418e-01 0.000000e+00
 2.476433e-02 -3.511429e-01 0.000000e+00
 -1.073243e-02 -3.166671e-01 0.000000e+00
 -1.546955e-02 -2.707050e-01 0.000000e+00
 3.444350e-01 -9.263289e-02 0.000000e+00
 3.307820e-01 -1.247674e-01 0.000000e+00
 3.565373e-01 -1.116363e-01 0.000000e+00
 7.454774e-03 -2.394939e-02 0.000000e+00
 7.967956e-03 -3.974536e-02 0.000000e+00
 0.000000e+00 0.000000e+00 0.000000e+00
 3.236644e-01 -1.122235e-02 0.000000e+00
 6.530100e-02 -1.379311e-01 0.000000e+00
 9.207188e-02 -1.176220e-01 0.000000e+00
 5.704459e-02 -1.038801e-01 0.000000e+00
 3.443594e-01 -7.029441e-02 0.000000e+00
 3.589337e-01 -5.164227e-02 0.000000e+00
 3.446475e-01 -4.791531e-02 0.000000e+00
 3.032092e-01 -7.013096e-02 0.000000e+00
 3.106370e-01 -4.704444e-02 0.000000e+00
 2.864850e-01 -5.224908e-02 0.000000e+00
 1.385888e-02 -3.115311e-01 0.000000e+00
 2.184006e-02 -2.748912e-01 0.000000e+00
 8.744545e-04 -3.481931e-01 0.000000e+00
 4.072131e-03 -3.500361e-01 0.000000e+00
 4.650741e-03 -3.506755e-01 0.000000e+00
 1.889517e-02 -3.336417e-01 0.000000e+00
 2.326992e-02 -3.440295e-01 0.000000e+00
 2.719032e-02 -3.362479e-01 0.000000e+00
 3.230338e-02 -2.320381e-01 0.000000e+00
 4.821810e-02 -2.674554e-01 0.000000e+00
 5.216247e-02 -2.437788e-01 0.000000e+00
 9.722329e-02 -3.221317e-01 0.000000e+00
 1.002161e-01 -2.867886e-01 0.000000e+00
 7.289054e-02 -3.036809e-01 0.000000e+00
 2.559047e-01 -3.292441e-01 0.000000e+00
 1.924570e-01 -3.544168e-01 0.000000e+00
 2.601965e-01 -9.810172e-03 0.000000e+00
 0.000000e+00 0.000000e+00 0.000000e+00
 3.219067e-01 9.339939e-03 0.000000e+00
 2.845239e-01 2.079730e-02 0.000000e+00
 3.343227e-01 -7.237287e-03 0.000000e+00
 3.452465e-01 -6.876613e-03 0.000000e+00
 3.446510e-01 -6.127253e-03 0.000000e+00
 3.835018e-02 -2.797460e-01 0.000000e+00
 5.710078e-02 -2.876864e-01 0.000000e+00
 1.262721e-02 -3.380817e-01 0.000000e+00
 1.362818e-02 -3.306368e-01 0.000000e+00
 1.033531e-02 -3.243279e-01 0.000000e+00
 6.111500e-02 -3.534281e-01 0.000000e+00
 6.988286e-02 -3.661326e-01 0.000000e+00
 8.409558e-02 -3.458793e-01 0.000000e+00
 3.450220e-01 1.142827e-03 0.000000e+00
 3.476230e-01 -3.466043e-03 0.000000e+00
 3.489184e-01 -9.985645e-04 0.000000e+00
 3.206855e-01 -1.546593e-02 0.000000e+00
 3.325381e-01 -1.253040e-02 0.000000e+00
 3.039477e-01 -9.266211e-03 0.000000e+00
 3.546296e-01 -7.363687e-03 0.000000e+00
 3.519757e-01 -4.019655e-03 0.000000e+00
 3.526453e-01 -7.738531e-03 0.000000e+00
 2.541586e-01 -1.301736e-01 0.000000e+00
 2.798356e-01 -1.020103e-01 0.000000e+00
 2.521257e-01 -9.993367e-02 0.000000e+00
 3.766487e-01 -8.550174e-02 0.000000e+00
 3.731160e-01 -1.344227e-01 0.000000e+00
 1.397772e-01 -6.763396e-02 0.000000e+00
 1.787602e-01 -7.930318e-02 0.000000e+00
 1.582299e-01 -4.536696e-02 0.000000e+00
 1.512046e-01 -1.737521e-02 0.000000e+00
 1.115407e-01 -5.950869e-03 0.000000e+00
 1.082527e-01 -1.884321e-01 0.000000e+00
 7.956144e-02 -1.719377e-01 0.000000e+00
 8.524265e-02 -2.067139e-01 0.000000e+00
 3.283111e-01 -4.363962e-02 0.000000e+00
 3.118847e-01 -3.327758e-02 0.000000e+00
 6.510859e-03 -3.487120e-01 0.000000e+00
 9.641235e-03 -3.518559e-01 0.000000e+00
 1.060662e-02 -3.471258e-01 0.000000e+00
 1.166657e-02 -3.543403e-01 0.000000e+00
 7.269223e-03 -3.487211e-01 0.000000e+00
 1.445990e-02 -3.022543e-01 0.000000e+00
 2.152441e-02 -3.062428e-01 0.000000e+00
 1.378402e-02 -2.777874e-01 0.000000e+00
 6.244620e-03 -3.435201e-01 0.000000e+00
 8.241132e-02 -3.046802e-02 0.000000e+00
 6.874976e-02 -5.300895e-02 0.000000e+00
 1.043942e-01 -5.911737e-02 0.000000e+00
 2.893439e-02 -8.015207e-02 0.000000e+00
 5.108449e-02 -6.938863e-02 0.000000e+00
 8.779716e-03 -3.140790e-01 0.000000e+00
 7.266594e-03 -2.968919e-01 0.000000e+00
 1.075156e-02 -3.424815e-01 0.000000e+00
 9.809858e-03 -3.336760e-01 0.000000e+00
 8.840848e-03 -3.420787e-01 0.000000e+00
 3.351549e-01 -2.392081e-02 0.000000e+00
 3.129886e-01 -1.969980e-02 0.000000e+00
 2.208156e-01 -1.514189e-02 0.000000e+00
 2.588723e-01 -2.956560e-02 0.000000e+00
 2.663658e-01 -2.042643e-02 0.000000e+00
 5.625014e-02 -3.675632e-01 0.000000e+00
 9.039288e-02 -3.752399e-01 0.000000e+00
 3.379304e-01 -2.028061e-01 0.000000e+00
 1.630816e-01 -8.150741e-04 0.000000e+00
 0.000000e+00 0.000000e+00 0.000000e+00
 2.926524e-01 -1.960214e-02 0.000000e+00
 8.901221e-02 -2.278929e-01 0.000000e+00
 7.015589e-02 -2.499408e-01 0.000000e+00
 9.158595e-02 -2.517206e-01 0.000000e+00
 2.527426e-02 -1.279503e-01 0.000000e+00
 3.722277e-02 -1.684086e-01 0.000000e+00
 4.661037e-02 -1.503120e-01 0.000000e+00
 2.571035e-03 -3.386881e-01 0.000000e+00
 -4.286191e-03 -3.250576e-01 0.000000e+00
 2.761269e-05 -3.082016e-01 0.000000e+00
 2.160842e-01 -2.258180e-01 0.000000e+00
 1.994056e-01 -2.631916e-01 0.000000e+00
 2.422368e-01 -2.444078e-01 0.000000e+00
 2.785839e-02 -3.232784e-01 0.000000e+00
 2.942626e-02 -3.070371e-01 0.000000e+00
 3.790958e-03 -9.250588e-02 0.000000e+00
 3.245286e-03 -1.017166e-01 0.000000e+00
 0.000000e+00 0.000000e+00 0.000000e+00
 4.130712e-02 -3.117999e-01 0.000000e+00
 5.687088e-02 -3.153629e-01 0.000000e+00
 1.595371e-01 -2.754092e-01 0.000000e+00
 1.271034e-01 -2.629297e-01 0.000000e+00
 4.995282e-02 -2.208889e-01 0.000000e+00
 6.444886e-02 -2.071679e-01 0.000000e+00
 4.547975e-02 -1.997926e-01 0.000000e+00
 3.401207e-01 -7.770850e-03 0.000000e+00
 3.490562e-01 -7.586703e-03 0.000000e+00
 3.429981e-01 -1.580076e-02 0.000000e+00
 3.261515e-01 -5.669577e-03 0.000000e+00
 3.551389e-01 -1.442686e-02 0.000000e+00
 3.046685e-01 -1.175450e-01 0.000000e+00
 2.967957e-01 -8.964159e-02 0.000000e+00
 3.703120e-01 -5.258379e-02 0.000000e+00
 3.672171e-01 -4.659850e-02 0.000000e+00
 2.135781e-01 -8.760006e-02 0.000000e+00
 2.869600e-01 -2.354199e-01 0.000000e+00
 2.659372e-01 -2.863974e-01 0.000000e+00
 0.000000e+00 0.000000e+00 0.000000e+00
 4.102575e-02 -3.557354e-01 0.000000e+00
 3.501058e-02 -3.605230e-01 0.000000e+00
 2.346746e-02 -3.571476e-01 0.000000e+00
 3.086833e-02 -3.591269e-01 0.000000e+00
 1.345010e-02 -3.507649e-01 0.000000e+00
 1.308841e-02 -3.542354e-01 0.000000e+00
 3.369199e-01 4.790212e-04 0.000000e+00
 3.490559e-01 -4.465681e-03 0.000000e+00
 3.268401e-01 -7.828563e-04 0.000000e+00
 3.581407e-01 -1.582002e-02 0.000000e+00
 3.566941e-01 -1.244698e-02 0.000000e+00
 3.565150e-01 -1.071343e-02 0.000000e+00
 3.095229e-01 -5.650949e-03 0.000000e+00
 3.146694e-01 -9.055915e-03 0.000000e+00
 2.626557e-01 -4.067109e-04 0.000000e+00
 3.134536e-01 -1.725534e-03 0.000000e+00
 3.460940e-01 1.054224e-03 0.000000e+00
 1.165807e-01 -9.495912e-02 0.000000e+00
 1.229617e-01 -3.792440e-01 0.000000e+00
 1.349496e-01 -3.670866e-01 0.000000e+00
 6.782840e-03 -3.031456e-01 0.000000e+00
 1.239866e-02 -3.195017e-01 0.000000e+00
 1.163186e-02 -3.381719e-01 0.000000e+00
 2.006043e-03 -2.386008e-01 0.000000e+00
 3.442692e-02 -3.547281e-01 0.000000e+00
 1.964573e-02 -3.322284e-01 0.000000e+00
 1.736833e-01 -3.384159e-02 0.000000e+00
 1.929259e-01 -2.087973e-02 0.000000e+00
 1.910543e-01 -3.532971e-02 0.000000e+00
 6.660224e-03 -1.919351e-01 0.000000e+00
 1.209524e-02 -2.518856e-01 0.000000e+00
 5.321230e-03 -2.459443e-01 0.000000e+00
 6.606284e-03 -2.790516e-01 0.000000e+00
 9.498814e-03 -2.912379e-01 0.000000e+00
 1.784167e-02 -3.483013e-01 0.000000e+00
 1.339923e-02 -3.456589e-01 0.000000e+00
 1.443717e-02 -3.188648e-01 0.000000e+00
 3.433750e-01 -1.334919e-02 0.000000e+00
 3.361275e-01 -9.640847e-03 0.000000e+00
 3.064248e-01 -4.895886e-03 0.000000e+00
 2.965124e-01 -4.967983e-03 0.000000e+00
 3.266357e-01 -6.887550e-03 0.000000e+00
 -5.221879e-03 -3.377202e-01 0.000000e+00
 -2.197614e-03 -3.442070e-01 0.000000e+00
 1.103641e-02 -2.733337e-01 0.000000e+00
 1.062660e-02 -3.154209e-01 0.000000e+00
 1.235244e-01 -3.379964e-01 0.000000e+00
 1.615784e-01 -3.341797e-01 0.000000e+00
 2.104274e-01 -3.271998e-01 0.000000e+00
 1.744481e-01 -2.998659e-01 0.000000e+00
 3.208897e-01 -2.290818e-02 0.000000e+00
 3.252130e-01 -7.857352e-02 0.000000e+00
 3.310532e-01 4.251753e-03 0.000000e+00
 3.425617e-01 -3.463286e-02 0.000000e+00