<?xml version="1.0"?>
<VTKFile type="UnstructuredGrid"  version="0.1"  >
<UnstructuredGrid>
<Piece  NumberOfPoints="505" NumberOfCells="928">
<Points>
<DataArray  type="Float32"  NumberOfComponents="3"  format="ascii">
0 0 0
1 0 0
0 1 0
1 0.5 0
0.5 0.5 0
0.5 1 0
0.1 0 0
0.2 0 0
0.3 0 0
0.4 0 0
0.5 0 0
0.6 0 0
0.7 0 0
0.8 0 0
0.9 0 0
0 0.9 0
0 0.8 0
0 0.7 0
0 0.6 0
0 0.5 0
0 0.4 0
0 0.3 0
0 0.2 0
0 0.1 0
0.9 0.5 0
0.8 0.5 0
0.7 0.5 0
0.6 0.5 0
0.5 0.6 0
0.5 0.7 0
0.5 0.8 0
0.5 0.9 0
0.1 1 0
0.2 1 0
0.3 1 0
0.4 1 0
1 0.1 0
1 0.2 0
1 0.3 0
1 0.4 0
0.300178 0.296564 0
0.247566 0.664879 0
0.639694 0.259804 0
0.06564 0.06472 0
0.04439 0.954144 0
0.932418 0.064715 0
0.951013 0.456419 0
0.437622 0.939659 0
0.195334 0.464441 0
0.483382 0.329596 0
0.834786 0.236295 0
0.307228 0.81139 0
0.178229 0.173372 0
0.366998 0.134199 0
0.547485 0.14214 0
0.124832 0.74927 0
0.160163 0.896658 0
0.342556 0.535243 0
0.147651 0.342018 0
0.729803 0.127878 0
0.725981 0.357775 0
0.121369 0.600441 0
0.372954 0.70814 0
0.908503 0.151525 0
0.89851 0.333305 0
0.556275 0.400898 0
0.259184 0.092178 0
0.46329 0.194362 0
0.423773 0.869712 0
0.22823 0.818162 0
0.081292 0.144905 0
0.082979 0.831935 0
0.549999 0.065419 0
0.371537 0.407588 0
0.642628 0.097865 0
0.459835 0.086595 0
0.108565 0.418567 0
0.273082 0.902112 0
0.256598 0.556659 0
0.11951 0.509541 0
0.234147 0.370527 0
0.097453 0.253261 0
0.638438 0.342389 0
0.554656 0.224779 0
0.373432 0.237603 0
0.339663 0.62579 0
0.27079 0.747786 0
0.733958 0.266592 0
0.928527 0.244458 0
0.853116 0.071497 0
0.818426 0.404817 0
0.280194 0.200604 0
0.417859 0.565185 0
0.147241 0.079056 0
0.389149 0.789957 0
0.42808 0.654642 0
0.343469 0.059202 0
0.086765 0.684153 0
0.162043 0.675011 0
0.809252 0.14201 0
0.364337 0.928607 0
0.077532 0.916553 0
0.159064 0.807906 0
0.302124 0.454032 0
0.205909 0.272176 0
0.449664 0.407415 0
0.66041 0.423241 0
0.562201 0.303789 0
0.802658 0.320211 0
0.614551 0.182931 0
0.390944 0.331035 0
0.687136 0.18846 0
0.070577 0.342498 0
0.741087 0.437361 0
0.176989 0.547528 0
0.710251 0.07409 0
0.192845 0.608574 0
0.171114 0.398277 0
0.058959 0.753084 0
0.904 0.425508 0
0.438039 0.730373 0
0.057223 0.475897 0
0.058502 0.552106 0
0.330493 0.750997 0
0.312295 0.699131 0
0.684882 0.307111 0
0.053312 0.627311 0
0.198798 0.743695 0
0.392326 0.069953 0
0.351519 0.860283 0
0.397134 0.477694 0
0.319385 0.371198 0
0.767351 0.069505 0
0.441954 0.271171 0
0.759504 0.192785 0
0.855661 0.457701 0
0.500847 0.264652 0
0.916209 0.0323575 0
0.966209 0.0323575 0
0.95 0 0
0.578137 0.450449 0
0.528137 0.450449 0
0.55 0.5 0
0.03282 0.08236 0
0.03282 0.03236 0
0 0.05 0
0.502969 0.404157 0
0.474832 0.453708 0
0.468811 0.91983 0
0.468811 0.96983 0
0.5 0.95 0
0.072195 0.977072 0
0.022195 0.977072 0
0.05 1 0
0.022195 0.927072 0
0 0.95 0
0.060961 0.935348 0
0.038766 0.908276 0
0.106441 0.071888 0
0.123621 0.039528 0
0.08282 0.03236 0
0.0414895 0.815967 0
0.0414895 0.865968 0
0 0.85 0
0.173621 0.039528 0
0.15 0 0
0.05 0 0
0.301327 0.07569 0
0.321735 0.029601 0
0.279592 0.046089 0
0.070969 0.792509 0
0.0294795 0.776542 0
0.0294795 0.726542 0
0 0.75 0
0.114267 0.111981 0
0.073466 0.104813 0
0.229592 0.046089 0
0.25 0 0
0.371735 0.029601 0
0.35 0 0
0.479917 0.0432975 0
0.429918 0.0432975 0
0.45 0 0
0.461562 0.140479 0
0.413416 0.110397 0
0.415144 0.16428 0
0.574999 0.0327095 0
0.525 0.0327095 0
0.55 0 0
0.596313 0.081642 0
0.621314 0.0489325 0
0.927507 0.440964 0
0.902 0.462754 0
0.925507 0.47821 0
0.0700385 0.655732 0
0.026656 0.663655 0
0.0433825 0.692076 0
0.026656 0.613655 0
0 0.65 0
0.276766 0.370862 0
0.309781 0.333881 0
0.267162 0.333545 0
0.458929 0.582593 0
0.458929 0.532593 0
0.5 0.55 0
0.422969 0.609913 0
0.46404 0.627321 0
0.43306 0.692508 0
0.46902 0.715186 0
0.46404 0.677321 0
0.46902 0.765186 0
0.5 0.75 0
0.180082 0.948329 0
0.130082 0.948329 0
0.15 1 0
0.87983 0.441605 0
0.87783 0.478851 0
0.975507 0.42821 0
0.975507 0.47821 0
1 0.45 0
0.676439 0.0859775 0
0.705125 0.037045 0
0.671314 0.0489325 0
0.779756 0.421089 0
0.770544 0.46868 0
0.809213 0.452408 0
0.738801 0.0717975 0
0.733675 0.0347525 0
0.95 0.5 0
0.720544 0.46868 0
0.75 0.5 0
0.029251 0.526053 0
0.029251 0.576053 0
0 0.55 0
0.089006 0.530824 0
0.0899355 0.576273 0
0.12044 0.554991 0
0.461886 0.884856 0
0.461886 0.834856 0
0.5 0.85 0
0.089571 0.380533 0
0.0352885 0.371249 0
0.0542825 0.409284 0
0.918515 0.197991 0
0.964263 0.222229 0
0.954252 0.175762 0
0.630205 0.46162 0
0.680205 0.46162 0
0.65 0.5 0
0.0352885 0.321249 0
0 0.35 0
0.0487265 0.226631 0
0.0487265 0.276631 0
0 0.25 0
0.286541 0.951056 0
0.236541 0.951056 0
0.25 1 0
0.382169 0.964303 0
0.332168 0.964303 0
0.35 1 0
0.966209 0.0823575 0
1 0.05 0
0.876558 0.0357485 0
0.826558 0.0357485 0
0.85 0 0
0.710547 0.227526 0
0.663415 0.224132 0
0.686826 0.263198 0
0.964263 0.272229 0
1 0.25 0
0.40098 0.934133 0
0.418811 0.96983 0
0.45 1 0
0.326813 0.219104 0
0.290186 0.248584 0
0.336805 0.267084 0
0.243052 0.23639 0
0.253043 0.28437 0
0.224721 0.582616 0
0.220205 0.636726 0
0.252082 0.610769 0
0.92046 0.10812 0
0.954252 0.125762 0
0.66166 0.32475 0
0.662288 0.283458 0
0.639066 0.301096 0
0.949255 0.366653 0
0.949255 0.316653 0
1 0.35 0
0.291542 0.723459 0
0.27993 0.682005 0
0.259178 0.706333 0
0.394055 0.89916 0
0.430698 0.904686 0
0.531524 0.28422 0
0.492115 0.297124 0
0.522791 0.316692 0
0.040646 0.122453 0
0.040646 0.172453 0
0 0.15 0
1 0.15 0
0.151681 0.262718 0
0.192069 0.222774 0
0.137841 0.213317 0
0.558428 0.264284 0
0.600947 0.281797 0
0.597175 0.242291 0
0.508973 0.20957 0
0.551071 0.183459 0
0.505387 0.168251 0
0.118847 0.906605 0
0.088766 0.958276 0
0.3123 0.881198 0
0.329373 0.835836 0
0.290155 0.856751 0
0.18042 0.709353 0
0.223182 0.704287 0
0.204805 0.669945 0
0.114037 0.464054 0
0.157422 0.486991 0
0.15195 0.441504 0
0.279361 0.505346 0
0.248729 0.459236 0
0.225966 0.51055 0
0.423399 0.442555 0
0.448567 0.488847 0
0.892767 0.068106 0
0.65 0 0
0.901255 0.379406 0
0.952 0.412754 0
0.858877 0.146767 0
0.822019 0.189153 0
0.871644 0.19391 0
0.14825 0.528535 0
0.186162 0.505985 0
0.178931 0.775801 0
0.161815 0.746482 0
0.141948 0.778588 0
0.29813 0.591225 0
0.34111 0.580516 0
0.299577 0.545951 0
0.913519 0.288882 0
0.881657 0.240376 0
0.866648 0.2848 0
0.664882 0.143162 0
0.708469 0.158169 0
0.686215 0.112871 0
0.768308 0.293401 0
0.818722 0.278253 0
0.784372 0.251443 0
0.407693 0.254387 0
0.452622 0.232766 0
0.418361 0.215983 0
0.559238 0.352343 0
0.519829 0.365247 0
0.269689 0.146391 0
0.323596 0.167402 0
0.313091 0.113188 0
0.367897 0.0645775 0
0.396163 0.0349765 0
0.220028 0.321352 0
0.17678 0.307097 0
0.190899 0.356272 0
0.584604 0.203855 0
0.581018 0.162535 0
0.250656 0.860137 0
0.267729 0.814776 0
0.359821 0.770477 0
0.31886 0.781193 0
0.348189 0.800674 0
0.124404 0.679582 0
0.141706 0.637726 0
0.104067 0.642297 0
0.216622 0.899385 0
0.203213 0.085617 0
0.162735 0.126214 0
0.218707 0.132775 0
0.0893725 0.199083 0
0.129761 0.159139 0
0.121022 0.819921 0
0.103905 0.790602 0
0.193647 0.813034 0
0.159614 0.852282 0
0.194196 0.85741 0
0.650843 0.185696 0
0.628589 0.140398 0
0.504917 0.076007 0
0.50366 0.114367 0
0.548742 0.103779 0
0.378761 0.595487 0
0.380208 0.550214 0
0.466523 0.368506 0
0.783675 0.0347525 0
0.75 0 0
0.595056 0.120002 0
0.20263 0.384402 0
0.183224 0.431359 0
0.214741 0.417484 0
0.084015 0.29788 0
0.109114 0.342258 0
0.122552 0.29764 0
0.370334 0.82512 0
0.387646 0.864998 0
0.406461 0.829835 0
0.355164 0.351116 0
0.345461 0.389393 0
0.38124 0.369312 0
0.177444 0.641792 0
0.157107 0.604507 0
0.0286115 0.437949 0
0.0286115 0.487949 0
0 0.45 0
0.184917 0.578051 0
0.216794 0.552094 0
0.310754 0.412615 0
0.268135 0.41228 0
0.13984 0.408422 0
0.159382 0.370147 0
0.128108 0.380293 0
0.784378 0.167398 0
0.797145 0.21454 0
0.649424 0.382815 0
0.693196 0.390508 0
0.682209 0.350082 0
0.471401 0.267911 0
0.482069 0.229507 0
0.600319 0.323089 0
0.597356 0.371644 0
0.370215 0.185901 0
0.420304 0.369225 0
0.410601 0.407502 0
0.5 0.65 0
0.293615 0.645334 0
0.325979 0.66246 0
0.342624 0.703635 0
0.356309 0.666965 0
0.24951 0.782974 0
0.289009 0.779588 0
0.810542 0.362514 0
0.76432 0.338993 0
0.772204 0.381296 0
0.70942 0.286852 0
0.705431 0.332443 0
0.729969 0.312184 0
0.831184 0.106754 0
0.88081 0.111511 0
0.700748 0.430301 0
0.733534 0.397568 0
0.850584 0.326758 0
0.229212 0.186988 0
0.407496 0.52144 0
0.369845 0.506468 0
0.413594 0.760165 0
0.405497 0.719256 0
0.381051 0.749049 0
0.444574 0.794979 0
0.383872 0.640216 0
0.400517 0.681391 0
0.355233 0.0967005 0
0.42608 0.078274 0
0.379662 0.102076 0
0.055907 0.589708 0
0.0873405 0.613876 0
0.072862 0.718619 0
0.0918955 0.751177 0
0.105798 0.716711 0
0.234794 0.74574 0
0.213514 0.780928 0
0.143437 0.712141 0
0.72332 0.190623 0
0.744653 0.160332 0
0.788301 0.105758 0
0.748577 0.0986915 0
0.769527 0.134944 0
0.357928 0.894445 0
0.318709 0.915359 0
0.0802555 0.874244 0
0.121571 0.864297 0
0.32234 0.494638 0
0.349629 0.465863 0
0.384335 0.442641 0
0.336831 0.43081 0
0.608343 0.412069 0
0.527752 0.244716 0
0.858468 0.369061 0
0.627123 0.221367 0
0.382188 0.284319 0
0.345561 0.3138 0
0.437163 0.330315 0
0.746731 0.229689 0
0.149179 0.573985 0
0.720027 0.100984 0
0.810234 0.070501 0
0.861213 0.415162 0
0.827831 0.478851 0
0.85 0.5 0
0.082894 0.447232 0
0.0883665 0.492719 0
0.0578625 0.514002 0
0.300642 0.749391 0
0.351723 0.729569 0
0.321394 0.725064 0
0.416449 0.301103 0
0.462668 0.300384 0
0.837044 0.431259 0
</DataArray>
</Points>
<Cells>
<DataArray  type="UInt32"  Name="connectivity"  format="ascii">
1 138 139 
14 137 139 
45 137 138 
137 138 139 
4 141 142 
27 140 142 
65 140 141 
140 141 142 
0 144 145 
23 143 145 
43 143 144 
143 144 145 
4 141 147 
65 141 146 
105 146 147 
141 146 147 
5 149 150 
31 148 150 
47 148 149 
148 149 150 
2 152 153 
32 151 153 
44 151 152 
151 152 153 
2 152 155 
15 154 155 
44 152 154 
152 154 155 
15 154 157 
44 154 156 
101 156 157 
154 156 157 
6 159 160 
43 158 160 
93 158 159 
158 159 160 
15 162 163 
16 161 163 
71 161 162 
161 162 163 
6 159 165 
7 164 165 
93 159 164 
159 164 165 
[...]
<PointData  Vectors="u"> 
<DataArray  type="Float32"  Name="u"  NumberOfComponents="3" format="ascii">
 0.000000e+00 0.000000e+00 0.000000e+00
 5.147833e-02 -2.274579e-02 0.000000e+00
 2.731454e-02 -5.840280e-02 0.000000e+00
 3.723721e-02 2.145184e-02 0.000000e+00
 0.000000e+00 0.000000e+00 0.000000e+00
 -3.144909e-02 -7.200297e-02 0.000000e+00
 0.000000e+00 0.000000e+00 0.000000e+00
 0.000000e+00 0.000000e+00 0.000000e+00
 0.000000e+00 0.000000e+00 0.000000e+00
 0.000000e+00 0.000000e+00 0.000000e+00
 0.000000e+00 0.000000e+00 0.000000e+00
 0.000000e+00 0.000000e+00 0.000000e+00
 0.000000e+00 0.000000e+00 0.000000e+00
 0.000000e+00 0.000000e+00 0.000000e+00
 0.000000e+00 0.000000e+00 0.000000e+00
 0.000000e+00 0.000000e+00 0.000000e+00
 0.000000e+00 0.000000e+00 0.000000e+00
 0.000000e+00 0.000000e+00 0.000000e+00
 0.000000e+00 0.000000e+00 0.000000e+00
 0.000000e+00 0.000000e+00 0.000000e+00
 0.000000e+00 0.000000e+00 0.000000e+00
 0.000000e+00 0.000000e+00 0.000000e+00
 0.000000e+00 0.000000e+00 0.000000e+00
 0.000000e+00 0.000000e+00 0.000000e+00
 0.000000e+00 0.000000e+00 0.000000e+00
 0.000000e+00 0.000000e+00 0.000000e+00
 0.000000e+00 0.000000e+00 0.000000e+00
 0.000000e+00 0.000000e+00 0.000000e+00
 0.000000e+00 0.000000e+00 0.000000e+00
 0.000000e+00 0.000000e+00 0.000000e+00
 0.000000e+00 0.000000e+00 0.000000e+00
 0.000000e+00 0.000000e+00 0.000000e+00
 2.834147e-02 -2.090900e-01 0.000000e+00
 1.117879e-02 -3.361008e-01 0.000000e+00
 -6.817744e-03 -3.448645e-01 0.000000e+00
 -2.793481e-02 -2.267623e-01 0.000000e+00
 2.339266e-01 -1.501085e-02 0.000000e+00
 3.575779e-01 6.812837e-03 0.000000e+00
 3.411765e-01 2.120468e-02 0.000000e+00
 2.027134e-01 2.765388e-02 0.000000e+00
 1.644387e-01 -2.155592e-01 0.000000e+00
 3.044033e-02 -3.739617e-01 0.000000e+00
 3.923299e-01 -2.059883e-02 0.000000e+00
 -2.394271e-03 2.061400e-03 0.000000e+00
 2.745806e-02 -1.034004e-01 0.000000e+00
 1.634742e-01 -1.088319e-02 0.000000e+00
 8.229518e-02 2.020169e-02 0.000000e+00
 -2.677779e-02 -1.583789e-01 0.000000e+00
 6.151417e-02 -2.770656e-01 0.000000e+00
 3.194732e-01 -1.808098e-01 0.000000e+00
 3.872038e-01 2.606155e-02 0.000000e+00
 5.655234e-03 -3.649132e-01 0.000000e+00
 5.198206e-02 -6.823101e-02 0.000000e+00
 1.859957e-01 -6.456293e-02 0.000000e+00
 3.149408e-01 -3.162012e-02 0.000000e+00
 9.260907e-03 -2.527827e-01 0.000000e+00
 1.418155e-02 -3.105953e-01 0.000000e+00
 8.354316e-02 -3.636367e-01 0.000000e+00
 4.244788e-02 -1.518085e-01 0.000000e+00
 3.233961e-01 1.049628e-02 0.000000e+00
 2.579128e-01 2.230297e-02 0.000000e+00
 1.694344e-02 -2.214823e-01 0.000000e+00
 1.542634e-02 -3.022747e-01 0.000000e+00
 3.340221e-01 7.099481e-03 0.000000e+00
 3.111710e-01 2.818017e-02 0.000000e+00
 1.943566e-01 -6.580671e-02 0.000000e+00
 7.458228e-02 -3.239391e-02 0.000000e+00
 3.021270e-01 -9.500703e-02 0.000000e+00
 -8.537415e-03 -1.861497e-01 0.000000e+00
 1.013165e-02 -3.691632e-01 0.000000e+00
 6.150204e-03 -1.071010e-02 0.000000e+00
 7.051941e-03 -1.736223e-01 0.000000e+00
 1.788804e-01 -5.600486e-03 0.000000e+00
 1.925227e-01 -3.173534e-01 0.000000e+00
 2.672718e-01 2.980475e-04 0.000000e+00
 1.921587e-01 -2.229649e-02 0.000000e+00
 2.221537e-02 -1.367607e-01 0.000000e+00
 9.372281e-04 -3.673300e-01 0.000000e+00
 6.139543e-02 -3.619793e-01 0.000000e+00
 2.285534e-02 -1.908551e-01 0.000000e+00
 1.008950e-01 -2.503289e-01 0.000000e+00
 1.578030e-02 -5.474452e-02 0.000000e+00
 2.986480e-01 -1.396252e-02 0.000000e+00
 3.733794e-01 -6.746063e-02 0.000000e+00
 2.334678e-01 -1.593640e-01 0.000000e+00
 4.031204e-02 -3.566492e-01 0.000000e+00
 1.624622e-02 -3.792930e-01 0.000000e+00
 3.847569e-01 1.926459e-02 0.000000e+00
 3.742401e-01 1.996330e-02 0.000000e+00
 1.859981e-01 3.543859e-03 0.000000e+00
 1.673715e-01 1.947066e-02 0.000000e+00
 1.371660e-01 -1.212603e-01 0.000000e+00
 4.078320e-02 -2.562402e-01 0.000000e+00
 1.276835e-02 -1.196548e-02 0.000000e+00
 2.749522e-03 -2.641211e-01 0.000000e+00
 1.184642e-02 -1.917738e-01 0.000000e+00
 8.811112e-02 -1.532400e-02 0.000000e+00
 6.282198e-03 -1.657399e-01 0.000000e+00
 1.843892e-02 -3.029332e-01 0.000000e+00
 3.365969e-01 1.455597e-02 0.000000e+00
 -1.587061e-02 -2.950321e-01 0.000000e+00
 1.952275e-02 -1.701248e-01 0.000000e+00
 1.119596e-02 -3.110413e-01 0.000000e+00
 1.221751e-01 -3.422700e-01 0.000000e+00
 8.130126e-02 -1.543198e-01 0.000000e+00
 2.293770e-01 -2.516735e-01 0.000000e+00
 9.236661e-02 7.724180e-03 0.000000e+00
 3.600163e-01 -8.662548e-02 0.000000e+00
 3.257656e-01 3.090998e-02 0.000000e+00
 3.756737e-01 -2.142829e-02 0.000000e+00
 2.482604e-01 -2.483898e-01 0.000000e+00
 3.887113e-01 3.649810e-03 0.000000e+00
 8.591448e-03 -5.411792e-02 0.000000e+00
 7.165027e-02 1.140825e-02 0.000000e+00
 3.940145e-02 -2.918026e-01 0.000000e+00
 2.084353e-01 5.270578e-03 0.000000e+00
 3.337422e-02 -3.272396e-01 0.000000e+00
 5.512137e-02 -2.124518e-01 0.000000e+00
 2.468518e-03 -1.083848e-01 0.000000e+00
 1.410800e-01 1.666836e-02 0.000000e+00
 3.990943e-03 -1.502156e-01 0.000000e+00
 5.589930e-03 -6.627030e-02 0.000000e+00
 5.015114e-03 -8.322289e-02 0.000000e+00
 1.272749e-02 -3.521834e-01 0.000000e+00
 2.344896e-02 -3.690616e-01 0.000000e+00
 3.495663e-01 6.294569e-03 0.000000e+00
 3.151686e-03 -8.330016e-02 0.000000e+00
 1.567170e-02 -3.506518e-01 0.000000e+00
 1.292176e-01 -1.927324e-02 0.000000e+00
 -4.903433e-03 -3.205812e-01 0.000000e+00
 1.320404e-01 -3.275790e-01 0.000000e+00
 1.701279e-01 -2.885922e-01 0.000000e+00
 1.901996e-01 5.944364e-03 0.000000e+00
 3.034221e-01 -1.701657e-01 0.000000e+00
 3.885989e-01 1.810346e-02 0.000000e+00
 5.649115e-02 5.683986e-03 0.000000e+00
 3.489313e-01 -1.269699e-01 0.000000e+00
 7.834713e-02 -6.224704e-03 0.000000e+00
 8.291756e-02 -2.019809e-02 0.000000e+00
 0.000000e+00 0.000000e+00 0.000000e+00
 4.106114e-02 -1.037915e-02 0.000000e+00
 9.027079e-02 -6.171027e-02 0.000000e+00
 0.000000e+00 0.000000e+00 0.000000e+00
 -1.212257e-03 4.214736e-03 0.000000e+00
 -1.995427e-03 1.988713e-03 0.000000e+00
 0.000000e+00 0.000000e+00 0.000000e+00
 2.249288e-01 -1.534246e-01 0.000000e+00
 1.437102e-01 -1.852837e-01 0.000000e+00
 -1.438693e-02 -7.990666e-02 0.000000e+00
 -3.084823e-02 -9.386764e-02 0.000000e+00
 0.000000e+00 0.000000e+00 0.000000e+00
 3.147469e-02 -1.576390e-01 0.000000e+00
 2.834022e-02 -7.076275e-02 0.000000e+00
 3.309180e-02 -1.138465e-01 0.000000e+00
 1.194948e-02 -4.837172e-02 0.000000e+00
 0.000000e+00 0.000000e+00 0.000000e+00
 2.333103e-02 -1.361821e-01 0.000000e+00
 1.070212e-02 -8.071391e-02 0.000000e+00
 1.655197e-03 -3.731487e-03 0.000000e+00
 -1.868795e-03 -1.552058e-03 0.000000e+00
 -3.952305e-03 8.885260e-04 0.000000e+00
 1.901338e-03 -7.310465e-02 0.000000e+00
 4.108737e-03 -7.907744e-02 0.000000e+00
 0.000000e+00 0.000000e+00 0.000000e+00
 5.951195e-03 -4.131791e-03 0.000000e+00
 0.000000e+00 0.000000e+00 0.000000e+00
 0.000000e+00 0.000000e+00 0.000000e+00
 8.583289e-02 -2.420695e-02 0.000000e+00
 3.704449e-02 -4.347290e-03 0.000000e+00
 4.376279e-02 -9.716866e-03 0.000000e+00
 3.996884e-03 -1.408717e-01 0.000000e+00
 6.877860e-04 -4.342501e-02 0.000000e+00
 6.353207e-04 -4.130438e-02 0.000000e+00
 0.000000e+00 0.000000e+00 0.000000e+00
 1.063784e-02 -1.427593e-02 0.000000e+00
 1.557206e-03 -1.701959e-03 0.000000e+00
 2.521389e-02 -8.391185e-03 0.000000e+00
 0.000000e+00 0.000000e+00 0.000000e+00
 5.047119e-02 -4.191212e-03 0.000000e+00
 0.000000e+00 0.000000e+00 0.000000e+00
 1.084031e-01 -5.184930e-03 0.000000e+00
 9.473132e-02 -7.067117e-03 0.000000e+00
 0.000000e+00 0.000000e+00 0.000000e+00
 2.637994e-01 -5.461907e-02 0.000000e+00
 1.986369e-01 -4.177137e-02 0.000000e+00
 2.460894e-01 -8.340496e-02 0.000000e+00
 9.221819e-02 -3.996197e-04 0.000000e+00
 8.810215e-02 -1.712633e-03 0.000000e+00
 0.000000e+00 0.000000e+00 0.000000e+00
 2.261840e-01 -3.755939e-03 0.000000e+00
 1.419563e-01 4.561677e-04 0.000000e+00
 1.113781e-01 1.716085e-02 0.000000e+00
 5.704362e-02 7.164694e-03 0.000000e+00
 3.258202e-02 7.909813e-03 0.000000e+00
 4.754929e-03 -1.241711e-01 0.000000e+00
 6.684421e-04 -3.293702e-02 0.000000e+00
 1.557417e-03 -6.764108e-02 0.000000e+00
 8.810544e-04 -3.019369e-02 0.000000e+00
 0.000000e+00 0.000000e+00 0.000000e+00
 1.346368e-01 -2.742782e-01 0.000000e+00
 1.704372e-01 -2.528478e-01 0.000000e+00
 1.317962e-01 -2.387332e-01 0.000000e+00
 1.122232e-02 -1.261903e-01 0.000000e+00
 3.613808e-02 -1.614981e-01 0.000000e+00
 0.000000e+00 0.000000e+00 0.000000e+00
 2.160980e-02 -2.209369e-01 0.000000e+00
 4.781619e-03 -9.364086e-02 0.000000e+00
 7.094030e-03 -1.695286e-01 0.000000e+00
 1.439751e-03 -6.626057e-02 0.000000e+00
 2.764810e-03 -8.444850e-02 0.000000e+00
 6.334697e-04 -6.300052e-02 0.000000e+00
 0.000000e+00 0.000000e+00 0.000000e+00
 1.385782e-02 -3.233118e-01 0.000000e+00
 2.123299e-02 -2.626690e-01 0.000000e+00
 1.991464e-02 -2.870012e-01 0.000000e+00
 9.822751e-02 1.036363e-02 0.000000e+00
 2.126257e-02 1.960276e-03 0.000000e+00
 1.443797e-01 2.703304e-02 0.000000e+00
 4.954724e-02 2.170522e-02 0.000000e+00
 9.849239e-02 2.768517e-02 0.000000e+00
 2.406757e-01 3.781025e-03 0.000000e+00
 1.014064e-01 2.320979e-03 0.000000e+00
 1.412881e-01 2.323347e-03 0.000000e+00
 1.193572e-01 1.570505e-02 0.000000e+00
 1.913200e-02 4.117578e-03 0.000000e+00
 5.652461e-02 7.215953e-03 0.000000e+00
 1.997420e-01 5.951095e-03 0.000000e+00
 9.336939e-02 2.153085e-03 0.000000e+00
 0.000000e+00 0.000000e+00 0.000000e+00
 9.428292e-03 4.199926e-03 0.000000e+00
 0.000000e+00 0.000000e+00 0.000000e+00
 1.381053e-03 -2.764398e-02 0.000000e+00
 1.200251e-03 -3.205183e-02 0.000000e+00
 0.000000e+00 0.000000e+00 0.000000e+00
 1.230430e-02 -1.400588e-01 0.000000e+00
 1.079126e-02 -1.533393e-01 0.000000e+00
 2.005742e-02 -2.074584e-01 0.000000e+00
 -5.882860e-03 -8.920241e-02 0.000000e+00
 -1.103076e-03 -8.238675e-02 0.000000e+00
 0.000000e+00 0.000000e+00 0.000000e+00
 1.501621e-02 -9.275343e-02 0.000000e+00
 1.840999e-03 -1.819723e-02 0.000000e+00
 5.096604e-03 -4.768659e-02 0.000000e+00
 3.696342e-01 1.394679e-02 0.000000e+00
 3.687707e-01 1.284699e-02 0.000000e+00
 3.490175e-01 5.372667e-03 0.000000e+00
 6.546664e-03 3.187848e-03 0.000000e+00
 1.204487e-02 5.056354e-03 0.000000e+00
 0.000000e+00 0.000000e+00 0.000000e+00
 1.602366e-03 -1.222500e-02 0.000000e+00
 0.000000e+00 0.000000e+00 0.000000e+00
 2.783624e-03 -9.707706e-03 0.000000e+00
 3.288450e-03 -1.754178e-02 0.000000e+00
 0.000000e+00 0.000000e+00 0.000000e+00
 -3.535870e-03 -3.545175e-01 0.000000e+00
 4.973347e-03 -3.560884e-01 0.000000e+00
 2.487446e-03 -3.555929e-01 0.000000e+00
 -2.275578e-02 -2.606589e-01 0.000000e+00
 -1.261068e-02 -3.239133e-01 0.000000e+00
 -1.715452e-02 -3.022923e-01 0.000000e+00
 2.005082e-01 -1.613787e-02 0.000000e+00
 1.207230e-01 -2.358295e-02 0.000000e+00
 8.584625e-02 6.138696e-05 0.000000e+00
 8.784875e-02 1.848224e-03 0.000000e+00
 0.000000e+00 0.000000e+00 0.000000e+00
 3.992735e-01 1.062856e-02 0.000000e+00
 3.987293e-01 -6.699240e-03 0.000000e+00
 3.902876e-01 3.523145e-03 0.000000e+00
 3.607944e-01 2.000038e-02 0.000000e+00
 3.645069e-01 1.506929e-02 0.000000e+00
 -2.231478e-02 -2.343454e-01 0.000000e+00
 -3.054686e-02 -1.937076e-01 0.000000e+00
 -3.441689e-02 -1.287933e-01 0.000000e+00
 1.843749e-01 -1.433943e-01 0.000000e+00
 1.533055e-01 -1.674215e-01 0.000000e+00
 2.001028e-01 -1.909700e-01 0.000000e+00
 1.094396e-01 -1.430634e-01 0.000000e+00
 1.210363e-01 -1.889427e-01 0.000000e+00
 4.622353e-02 -3.492513e-01 0.000000e+00
 3.313605e-02 -3.563528e-01 0.000000e+00
 4.396214e-02 -3.700361e-01 0.000000e+00
 2.636697e-01 -2.400237e-03 0.000000e+00
 2.885108e-01 -4.832852e-03 0.000000e+00
 3.264307e-01 -3.160419e-03 0.000000e+00
 3.770112e-01 -7.342738e-03 0.000000e+00
 3.619152e-01 -1.967746e-02 0.000000e+00
 2.631045e-01 2.615819e-02 0.000000e+00
 3.295049e-01 2.506823e-02 0.000000e+00
 2.874561e-01 2.530211e-02 0.000000e+00
 1.966329e-02 -3.766100e-01 0.000000e+00
 2.802339e-02 -3.793436e-01 0.000000e+00
 2.296486e-02 -3.787645e-01 0.000000e+00
 -1.496080e-02 -2.506847e-01 0.000000e+00
 -1.588018e-02 -1.723651e-01 0.000000e+00
 3.626679e-01 -1.115574e-01 0.000000e+00
 3.390651e-01 -1.545153e-01 0.000000e+00
 3.427402e-01 -1.316078e-01 0.000000e+00
 1.474790e-04 3.570250e-03 0.000000e+00
 1.103010e-03 3.025769e-04 0.000000e+00
 0.000000e+00 0.000000e+00 0.000000e+00
 3.158592e-01 -3.538463e-03 0.000000e+00
 4.300361e-02 -1.080486e-01 0.000000e+00
 6.756842e-02 -1.088857e-01 0.000000e+00
 3.244371e-02 -6.921172e-02 0.000000e+00
 3.768766e-01 -8.084091e-02 0.000000e+00
 3.791216e-01 -4.904085e-02 0.000000e+00
 3.902249e-01 -4.556806e-02 0.000000e+00
 3.424277e-01 -8.561049e-02 0.000000e+00
 3.530894e-01 -4.958570e-02 0.000000e+00
 3.165419e-01 -6.029168e-02 0.000000e+00
 1.774434e-02 -2.500755e-01 0.000000e+00
 2.726755e-02 -1.907813e-01 0.000000e+00
 -2.826064e-03 -3.545335e-01 0.000000e+00
 5.577867e-04 -3.466017e-01 0.000000e+00
 2.146121e-03 -3.683129e-01 0.000000e+00
 1.744661e-02 -3.301399e-01 0.000000e+00
 2.174733e-02 -3.654628e-01 0.000000e+00
 2.515628e-02 -3.491508e-01 0.000000e+00
 2.314365e-02 -1.641668e-01 0.000000e+00
 3.995116e-02 -2.418525e-01 0.000000e+00
 4.157119e-02 -2.123934e-01 0.000000e+00
 8.779651e-02 -3.567095e-01 0.000000e+00
 9.135845e-02 -3.195613e-01 0.000000e+00
 6.567224e-02 -3.273161e-01 0.000000e+00
 1.780860e-01 -2.955469e-01 0.000000e+00
 1.008618e-01 -2.320765e-01 0.000000e+00
 1.741232e-01 -1.276372e-03 0.000000e+00
 0.000000e+00 0.000000e+00 0.000000e+00
 2.375573e-01 2.450448e-02 0.000000e+00
 1.759476e-01 2.475432e-02 0.000000e+00
 3.361187e-01 1.246658e-02 0.000000e+00
 3.799063e-01 2.033630e-02 0.000000e+00
 3.753175e-01 1.836202e-02 0.000000e+00
 3.173144e-02 -2.451603e-01 0.000000e+00
 5.002349e-02 -2.866976e-01 0.000000e+00
 1.257886e-02 -3.333629e-01 0.000000e+00
 1.291588e-02 -3.111000e-01 0.000000e+00
 1.037438e-02 -2.848025e-01 0.000000e+00
 5.477998e-02 -3.759269e-01 0.000000e+00
 5.837078e-02 -3.612368e-01 0.000000e+00
 7.427910e-02 -3.715258e-01 0.000000e+00
 3.560680e-01 2.609931e-02 0.000000e+00
 3.810074e-01 2.392883e-02 0.000000e+00
 3.620770e-01 2.919372e-02 0.000000e+00
 3.456615e-01 8.164637e-04 0.000000e+00
 3.648431e-01 8.819267e-03 0.000000e+00
 2.983583e-01 5.491281e-03 0.000000e+00
 3.593108e-01 2.758385e-02 0.000000e+00
 3.697755e-01 3.003198e-02 0.000000e+00
 3.881940e-01 2.622685e-02 0.000000e+00
 2.697396e-01 -1.681539e-01 0.000000e+00
 3.072915e-01 -1.309224e-01 0.000000e+00
 2.716369e-01 -1.290310e-01 0.000000e+00
 3.005650e-01 -8.723442e-02 0.000000e+00
 2.886845e-01 -1.387799e-01 0.000000e+00
 1.123939e-01 -7.291959e-02 0.000000e+00
 1.668280e-01 -9.501131e-02 0.000000e+00
 1.277750e-01 -4.944303e-02 0.000000e+00
 1.082422e-01 -1.744474e-02 0.000000e+00
 6.663677e-02 -5.071861e-03 0.000000e+00
 9.312630e-02 -2.023159e-01 0.000000e+00
 6.088311e-02 -1.584689e-01 0.000000e+00
 7.012054e-02 -2.056399e-01 0.000000e+00
 3.780521e-01 -4.178021e-02 0.000000e+00
 3.492611e-01 -2.853291e-02 0.000000e+00
 5.934784e-03 -3.720639e-01 0.000000e+00
 8.192854e-03 -3.765822e-01 0.000000e+00
 7.440219e-03 -3.162101e-01 0.000000e+00
 8.923353e-03 -3.595410e-01 0.000000e+00
 3.953550e-03 -3.295045e-01 0.000000e+00
 1.208586e-02 -2.428856e-01 0.000000e+00
 1.837894e-02 -2.655412e-01 0.000000e+00
 1.066594e-02 -1.963944e-01 0.000000e+00
 8.323961e-03 -3.575787e-01 0.000000e+00
 3.865621e-02 -2.303772e-02 0.000000e+00
 3.319943e-02 -3.527913e-02 0.000000e+00
 6.894708e-02 -5.392172e-02 0.000000e+00
 1.123908e-02 -2.963900e-02 0.000000e+00
 2.359959e-02 -3.780036e-02 0.000000e+00
 9.732983e-03 -2.518776e-01 0.000000e+00
 7.244715e-03 -2.155356e-01 0.000000e+00
 1.137657e-02 -3.478647e-01 0.000000e+00
 1.211010e-02 -3.117958e-01 0.000000e+00
 1.069147e-02 -3.466020e-01 0.000000e+00
 3.842682e-01 -7.884412e-03 0.000000e+00
 3.376247e-01 -7.238765e-03 0.000000e+00
 1.908923e-01 -1.292969e-02 0.000000e+00
 2.582214e-01 -2.925019e-02 0.000000e+00
 2.601757e-01 -1.622752e-02 0.000000e+00
 4.336926e-02 -3.182614e-01 0.000000e+00
 6.757260e-02 -3.307322e-01 0.000000e+00
 2.797742e-01 -2.180577e-01 0.000000e+00
 8.870689e-02 2.167616e-03 0.000000e+00
 0.000000e+00 0.000000e+00 0.000000e+00
 3.011244e-01 -1.126832e-02 0.000000e+00
 7.657127e-02 -2.356181e-01 0.000000e+00
 5.930112e-02 -2.459068e-01 0.000000e+00
 8.066949e-02 -2.681907e-01 0.000000e+00
 1.206746e-02 -5.664503e-02 0.000000e+00
 2.252489e-02 -1.046112e-01 0.000000e+00
 2.798864e-02 -9.933801e-02 0.000000e+00
 -1.058560e-03 -2.964279e-01 0.000000e+00
 -8.237229e-03 -2.643060e-01 0.000000e+00
 -2.866135e-03 -2.258817e-01 0.000000e+00
 2.085273e-01 -2.737328e-01 0.000000e+00
 1.844334e-01 -3.067444e-01 0.000000e+00
 2.241640e-01 -2.854583e-01 0.000000e+00
 2.500500e-02 -3.169382e-01 0.000000e+00
 2.545603e-02 -2.818037e-01 0.000000e+00
 1.264865e-03 -1.790163e-02 0.000000e+00
 1.357179e-03 -2.319820e-02 0.000000e+00
 0.000000e+00 0.000000e+00 0.000000e+00
 3.674567e-02 -3.108434e-01 0.000000e+00
 5.153324e-02 -3.347226e-01 0.000000e+00
 1.472318e-01 -3.192242e-01 0.000000e+00
 1.175949e-01 -3.018698e-01 0.000000e+00
 3.704189e-02 -1.785869e-01 0.000000e+00
 4.925236e-02 -1.818295e-01 0.000000e+00
 3.164955e-02 -1.482094e-01 0.000000e+00
 3.685920e-01 1.751654e-02 0.000000e+00
 3.917216e-01 2.335987e-02 0.000000e+00
 2.025738e-01 8.554940e-04 0.000000e+00
 1.795579e-01 1.511721e-02 0.000000e+00
 2.758045e-01 9.904368e-03 0.000000e+00
 3.280032e-01 -1.501463e-01 0.000000e+00
 3.301600e-01 -1.136231e-01 0.000000e+00
 3.384052e-01 -4.834691e-02 0.000000e+00
 2.467537e-01 -3.799785e-02 0.000000e+00
 2.165979e-01 -1.096893e-01 0.000000e+00
 2.544110e-01 -2.660232e-01 0.000000e+00
 2.160725e-01 -2.973970e-01 0.000000e+00
 0.000000e+00 0.000000e+00 0.000000e+00
 3.705755e-02 -3.776084e-01 0.000000e+00
 3.099880e-02 -3.631341e-01 0.000000e+00
 2.003103e-02 -3.442906e-01 0.000000e+00
 2.608413e-02 -3.330782e-01 0.000000e+00
 1.234039e-02 -3.767966e-01 0.000000e+00
 1.103556e-02 -3.749520e-01 0.000000e+00
 2.560843e-01 2.798136e-02 0.000000e+00
 2.955328e-01 2.811186e-02 0.000000e+00
 2.108790e-01 2.458545e-02 0.000000e+00
 3.703643e-01 1.405036e-02 0.000000e+00
 3.084693e-01 1.677408e-02 0.000000e+00
 3.387062e-01 2.161787e-02 0.000000e+00
 2.726385e-01 9.036029e-03 0.000000e+00
 2.760392e-01 4.791455e-03 0.000000e+00
 7.910713e-02 1.154257e-02 0.000000e+00
 1.660051e-01 1.964173e-02 0.000000e+00
 3.181566e-01 3.051928e-02 0.000000e+00
 9.114751e-02 -9.728835e-02 0.000000e+00
 8.009598e-02 -3.020206e-01 0.000000e+00
 1.043445e-01 -3.493584e-01 0.000000e+00
 4.252639e-03 -2.115556e-01 0.000000e+00
 9.165115e-03 -2.354068e-01 0.000000e+00
 8.509743e-03 -2.829797e-01 0.000000e+00
 4.728131e-04 -1.281143e-01 0.000000e+00
 2.697839e-02 -2.967532e-01 0.000000e+00
 1.490782e-02 -2.534219e-01 0.000000e+00
 1.430002e-01 -3.724563e-02 0.000000e+00
 1.607242e-01 -2.149761e-02 0.000000e+00
 1.657817e-01 -3.969660e-02 0.000000e+00
 4.039505e-03 -8.380767e-02 0.000000e+00
 8.778812e-03 -1.557465e-01 0.000000e+00
 3.949200e-03 -1.380793e-01 0.000000e+00
 5.675973e-03 -1.853369e-01 0.000000e+00
 7.846047e-03 -2.114130e-01 0.000000e+00
 1.668147e-02 -3.727906e-01 0.000000e+00
 1.302750e-02 -3.623586e-01 0.000000e+00
 1.287825e-02 -2.805495e-01 0.000000e+00
 3.897243e-01 1.235184e-02 0.000000e+00
 3.654006e-01 1.399295e-02 0.000000e+00
 2.760578e-01 1.030514e-02 0.000000e+00
 2.651748e-01 9.055725e-03 0.000000e+00
 3.310914e-01 1.348033e-02 0.000000e+00
 -1.053231e-02 -3.085676e-01 0.000000e+00
 -6.766560e-03 -3.453649e-01 0.000000e+00
 1.137341e-02 -1.723071e-01 0.000000e+00
 1.301180e-02 -2.549415e-01 0.000000e+00
 1.071461e-01 -3.621443e-01 0.000000e+00
 1.357862e-01 -3.514361e-01 0.000000e+00
 1.686429e-01 -3.311186e-01 0.000000e+00
 1.547798e-01 -3.351645e-01 0.000000e+00
 1.324222e-01 -1.265155e-02 0.000000e+00
 3.638289e-01 -9.535388e-02 0.000000e+00
 2.506808e-01 2.612121e-02 0.000000e+00
 3.946507e-01 -2.374265e-02 0.000000e+00
 2.462442e-01 -2.047027e-01 0.000000e+00
 2.074084e-01 -2.378955e-01 0.000000e+00