<?xml version="1.0"?>
<VTKFile type="UnstructuredGrid"  version="0.1"  >
<UnstructuredGrid>
<Piece  NumberOfPoints="505" NumberOfCells="928">
<Points>
<DataArray  type="Float32"  NumberOfComponents="3"  format="ascii">
0 0 0
1 0 0
0 1 0
1 0.5 0
0.5 0.5 0
0.5 1 0
0.1 0 0
0.2 0 0
0.3 0 0
0.4 0 0
0.5 0 0
0.6 0 0
0.7 0 0
0.8 0 0
0.9 0 0
0 0.9 0
0 0.8 0
0 0.7 0
0 0.6 0
0 0.5 0
0 0.4 0
0 0.3 0
0 0.2 0
0 0.1 0
0.9 0.5 0
0.8 0.5 0
0.7 0.5 0
0.6 0.5 0
0.5 0.6 0
0.5 0.7 0
0.5 0.8 0
0.5 0.9 0
0.1 1 0
0.2 1 0
0.3 1 0
0.4 1 0
1 0.1 0
1 0.2 0
1 0.3 0
1 0.4 0
0.300178 0.296564 0
0.247566 0.664879 0
0.639694 0.259804 0
0.06564 0.06472 0
0.04439 0.954144 0
0.932418 0.064715 0
0.951013 0.456419 0
0.437622 0.939659 0
0.195334 0.464441 0
0.483382 0.329596 0
0.834786 0.236295 0
0.307228 0.81139 0
0.178229 0.173372 0
0.366998 0.134199 0
0.547485 0.14214 0
0.124832 0.74927 0
0.160163 0.896658 0
0.342556 0.535243 0
0.147651 0.342018 0
0.729803 0.127878 0
0.725981 0.357775 0
0.121369 0.600441 0
0.372954 0.70814 0
0.908503 0.151525 0
0.89851 0.333305 0
0.556275 0.400898 0
0.259184 0.092178 0
0.46329 0.194362 0
0.423773 0.869712 0
0.22823 0.818162 0
0.081292 0.144905 0
0.082979 0.831935 0
0.549999 0.065419 0
0.371537 0.407588 0
0.642628 0.097865 0
0.459835 0.086595 0
0.108565 0.418567 0
0.273082 0.902112 0
0.256598 0.556659 0
0.11951 0.509541 0
0.234147 0.370527 0
0.097453 0.253261 0
0.638438 0.342389 0
0.554656 0.224779 0
0.373432 0.237603 0
0.339663 0.62579 0
0.27079 0.747786 0
0.733958 0.266592 0
0.928527 0.244458 0
0.853116 0.071497 0
0.818426 0.404817 0
0.280194 0.200604 0
0.417859 0.565185 0
0.147241 0.079056 0
0.389149 0.789957 0
0.42808 0.654642 0
0.343469 0.059202 0
0.086765 0.684153 0
0.162043 0.675011 0
0.809252 0.14201 0
0.364337 0.928607 0
0.077532 0.916553 0
0.159064 0.807906 0
0.302124 0.454032 0
0.205909 0.272176 0
0.449664 0.407415 0
0.66041 0.423241 0
0.562201 0.303789 0
0.802658 0.320211 0
0.614551 0.182931 0
0.390944 0.331035 0
0.687136 0.18846 0
0.070577 0.342498 0
0.741087 0.437361 0
0.176989 0.547528 0
0.710251 0.07409 0
0.192845 0.608574 0
0.171114 0.398277 0
0.058959 0.753084 0
0.904 0.425508 0
0.438039 0.730373 0
0.057223 0.475897 0
0.058502 0.552106 0
0.330493 0.750997 0
0.312295 0.699131 0
0.684882 0.307111 0
0.053312 0.627311 0
0.198798 0.743695 0
0.392326 0.069953 0
0.351519 0.860283 0
0.397134 0.477694 0
0.319385 0.371198 0
0.767351 0.069505 0
0.441954 0.271171 0
0.759504 0.192785 0
0.855661 0.457701 0
0.500847 0.264652 0
0.916209 0.0323575 0
0.966209 0.0323575 0
0.95 0 0
0.578137 0.450449 0
0.528137 0.450449 0
0.55 0.5 0
0.03282 0.08236 0
0.03282 0.03236 0
0 0.05 0
0.502969 0.404157 0
0.474832 0.453708 0
0.468811 0.91983 0
0.468811 0.96983 0
0.5 0.95 0
0.072195 0.977072 0
0.022195 0.977072 0
0.05 1 0
0.022195 0.927072 0
0 0.95 0
0.060961 0.935348 0
0.038766 0.908276 0
0.106441 0.071888 0
0.123621 0.039528 0
0.08282 0.03236 0
0.0414895 0.815967 0
0.0414895 0.865968 0
0 0.85 0
0.173621 0.039528 0
0.15 0 0
0.05 0 0
0.301327 0.07569 0
0.321735 0.029601 0
0.279592 0.046089 0
0.070969 0.792509 0
0.0294795 0.776542 0
0.0294795 0.726542 0
0 0.75 0
0.114267 0.111981 0
0.073466 0.104813 0
0.229592 0.046089 0
0.25 0 0
0.371735 0.029601 0
0.35 0 0
0.479917 0.0432975 0
0.429918 0.0432975 0
0.45 0 0
0.461562 0.140479 0
0.413416 0.110397 0
0.415144 0.16428 0
0.574999 0.0327095 0
0.525 0.0327095 0
0.55 0 0
0.596313 0.081642 0
0.621314 0.0489325 0
0.927507 0.440964 0
0.902 0.462754 0
0.925507 0.47821 0
0.0700385 0.655732 0
0.026656 0.663655 0
0.0433825 0.692076 0
0.026656 0.613655 0
0 0.65 0
0.276766 0.370862 0
0.309781 0.333881 0
0.267162 0.333545 0
0.458929 0.582593 0
0.458929 0.532593 0
0.5 0.55 0
0.422969 0.609913 0
0.46404 0.627321 0
0.43306 0.692508 0
0.46902 0.715186 0
0.46404 0.677321 0
0.46902 0.765186 0
0.5 0.75 0
0.180082 0.948329 0
0.130082 0.948329 0
0.15 1 0
0.87983 0.441605 0
0.87783 0.478851 0
0.975507 0.42821 0
0.975507 0.47821 0
1 0.45 0
0.676439 0.0859775 0
0.705125 0.037045 0
0.671314 0.0489325 0
0.779756 0.421089 0
0.770544 0.46868 0
0.809213 0.452408 0
0.738801 0.0717975 0
0.733675 0.0347525 0
0.95 0.5 0
0.720544 0.46868 0
0.75 0.5 0
0.029251 0.526053 0
0.029251 0.576053 0
0 0.55 0
0.089006 0.530824 0
0.0899355 0.576273 0
0.12044 0.554991 0
0.461886 0.884856 0
0.461886 0.834856 0
0.5 0.85 0
0.089571 0.380533 0
0.0352885 0.371249 0
0.0542825 0.409284 0
0.918515 0.197991 0
0.964263 0.222229 0
0.954252 0.175762 0
0.630205 0.46162 0
0.680205 0.46162 0
0.65 0.5 0
0.0352885 0.321249 0
0 0.35 0
0.0487265 0.226631 0
0.0487265 0.276631 0
0 0.25 0
0.286541 0.951056 0
0.236541 0.951056 0
0.25 1 0
0.382169 0.964303 0
0.332168 0.964303 0
0.35 1 0
0.966209 0.0823575 0
1 0.05 0
0.876558 0.0357485 0
0.826558 0.0357485 0
0.85 0 0
0.710547 0.227526 0
0.663415 0.224132 0
0.686826 0.263198 0
0.964263 0.272229 0
1 0.25 0
0.40098 0.934133 0
0.418811 0.96983 0
0.45 1 0
0.326813 0.219104 0
0.290186 0.248584 0
0.336805 0.267084 0
0.243052 0.23639 0
0.253043 0.28437 0
0.224721 0.582616 0
0.220205 0.636726 0
0.252082 0.610769 0
0.92046 0.10812 0
0.954252 0.125762 0
0.66166 0.32475 0
0.662288 0.283458 0
0.639066 0.301096 0
0.949255 0.366653 0
0.949255 0.316653 0
1 0.35 0
0.291542 0.723459 0
0.27993 0.682005 0
0.259178 0.706333 0
0.394055 0.89916 0
0.430698 0.904686 0
0.531524 0.28422 0
0.492115 0.297124 0
0.522791 0.316692 0
0.040646 0.122453 0
0.040646 0.172453 0
0 0.15 0
1 0.15 0
0.151681 0.262718 0
0.192069 0.222774 0
0.137841 0.213317 0
0.558428 0.264284 0
0.600947 0.281797 0
0.597175 0.242291 0
0.508973 0.20957 0
0.551071 0.183459 0
0.505387 0.168251 0
0.118847 0.906605 0
0.088766 0.958276 0
0.3123 0.881198 0
0.329373 0.835836 0
0.290155 0.856751 0
0.18042 0.709353 0
0.223182 0.704287 0
0.204805 0.669945 0
0.114037 0.464054 0
0.157422 0.486991 0
0.15195 0.441504 0
0.279361 0.505346 0
0.248729 0.459236 0
0.225966 0.51055 0
0.423399 0.442555 0
0.448567 0.488847 0
0.892767 0.068106 0
0.65 0 0
0.901255 0.379406 0
0.952 0.412754 0
0.858877 0.146767 0
0.822019 0.189153 0
0.871644 0.19391 0
0.14825 0.528535 0
0.186162 0.505985 0
0.178931 0.775801 0
0.161815 0.746482 0
0.141948 0.778588 0
0.29813 0.591225 0
0.34111 0.580516 0
0.299577 0.545951 0
0.913519 0.288882 0
0.881657 0.240376 0
0.866648 0.2848 0
0.664882 0.143162 0
0.708469 0.158169 0
0.686215 0.112871 0
0.768308 0.293401 0
0.818722 0.278253 0
0.784372 0.251443 0
0.407693 0.254387 0
0.452622 0.232766 0
0.418361 0.215983 0
0.559238 0.352343 0
0.519829 0.365247 0
0.269689 0.146391 0
0.323596 0.167402 0
0.313091 0.113188 0
0.367897 0.0645775 0
0.396163 0.0349765 0
0.220028 0.321352 0
0.17678 0.307097 0
0.190899 0.356272 0
0.584604 0.203855 0
0.581018 0.162535 0
0.250656 0.860137 0
0.267729 0.814776 0
0.359821 0.770477 0
0.31886 0.781193 0
0.348189 0.800674 0
0.124404 0.679582 0
0.141706 0.637726 0
0.104067 0.642297 0
0.216622 0.899385 0
0.203213 0.085617 0
0.162735 0.126214 0
0.218707 0.132775 0
0.0893725 0.199083 0
0.129761 0.159139 0
0.121022 0.819921 0
0.103905 0.790602 0
0.193647 0.813034 0
0.159614 0.852282 0
0.194196 0.85741 0
0.650843 0.185696 0
0.628589 0.140398 0
0.504917 0.076007 0
0.50366 0.114367 0
0.548742 0.103779 0
0.378761 0.595487 0
0.380208 0.550214 0
0.466523 0.368506 0
0.783675 0.0347525 0
0.75 0 0
0.595056 0.120002 0
0.20263 0.384402 0
0.183224 0.431359 0
0.214741 0.417484 0
0.084015 0.29788 0
0.109114 0.342258 0
0.122552 0.29764 0
0.370334 0.82512 0
0.387646 0.864998 0
0.406461 0.829835 0
0.355164 0.351116 0
0.345461 0.389393 0
0.38124 0.369312 0
0.177444 0.641792 0
0.157107 0.604507 0
0.0286115 0.437949 0
0.0286115 0.487949 0
0 0.45 0
0.184917 0.578051 0
0.216794 0.552094 0
0.310754 0.412615 0
0.268135 0.41228 0
0.13984 0.408422 0
0.159382 0.370147 0
0.128108 0.380293 0
0.784378 0.167398 0
0.797145 0.21454 0
0.649424 0.382815 0
0.693196 0.390508 0
0.682209 0.350082 0
0.471401 0.267911 0
0.482069 0.229507 0
0.600319 0.323089 0
0.597356 0.371644 0
0.370215 0.185901 0
0.420304 0.369225 0
0.410601 0.407502 0
0.5 0.65 0
0.293615 0.645334 0
0.325979 0.66246 0
0.342624 0.703635 0
0.356309 0.666965 0
0.24951 0.782974 0
0.289009 0.779588 0
0.810542 0.362514 0
0.76432 0.338993 0
0.772204 0.381296 0
0.70942 0.286852 0
0.705431 0.332443 0
0.729969 0.312184 0
0.831184 0.106754 0
0.88081 0.111511 0
0.700748 0.430301 0
0.733534 0.397568 0
0.850584 0.326758 0
0.229212 0.186988 0
0.407496 0.52144 0
0.369845 0.506468 0
0.413594 0.760165 0
0.405497 0.719256 0
0.381051 0.749049 0
0.444574 0.794979 0
0.383872 0.640216 0
0.400517 0.681391 0
0.355233 0.0967005 0
0.42608 0.078274 0
0.379662 0.102076 0
0.055907 0.589708 0
0.0873405 0.613876 0
0.072862 0.718619 0
0.0918955 0.751177 0
0.105798 0.716711 0
0.234794 0.74574 0
0.213514 0.780928 0
0.143437 0.712141 0
0.72332 0.190623 0
0.744653 0.160332 0
0.788301 0.105758 0
0.748577 0.0986915 0
0.769527 0.134944 0
0.357928 0.894445 0
0.318709 0.915359 0
0.0802555 0.874244 0
0.121571 0.864297 0
0.32234 0.494638 0
0.349629 0.465863 0
0.384335 0.442641 0
0.336831 0.43081 0
0.608343 0.412069 0
0.527752 0.244716 0
0.858468 0.369061 0
0.627123 0.221367 0
0.382188 0.284319 0
0.345561 0.3138 0
0.437163 0.330315 0
0.746731 0.229689 0
0.149179 0.573985 0
0.720027 0.100984 0
0.810234 0.070501 0
0.861213 0.415162 0
0.827831 0.478851 0
0.85 0.5 0
0.082894 0.447232 0
0.0883665 0.492719 0
0.0578625 0.514002 0
0.300642 0.749391 0
0.351723 0.729569 0
0.321394 0.725064 0
0.416449 0.301103 0
0.462668 0.300384 0
0.837044 0.431259 0
</DataArray>
</Points>
<Cells>
<DataArray  type="UInt32"  Name="connectivity"  format="ascii">
1 138 139 
14 137 139 
45 137 138 
137 138 139 
4 141 142 
27 140 142 
65 140 141 
140 141 142 
0 144 145 
23 143 145 
43 143 144 
143 144 145 
4 141 147 
65 141 146 
105 146 147 
141 146 147 
5 149 150 
31 148 150 
47 148 149 
148 149 150 
2 152 153 
32 151 153 
44 151 152 
151 152 153 
2 152 155 
15 154 155 
44 152 154 
152 154 155 
15 154 157 
44 154 156 
101 156 157 
154 156 157 
6 159 160 
43 158 160 
93 158 159 
158 159 160 
15 162 163 
16 161 163 
71 161 162 
161 162 163 
6 159 165 
7 164 165 
93 159 164 
159 164 165 
[...]
<PointData  Vectors="u"> 
<DataArray  type="Float32"  Name="u"  NumberOfComponents="3" format="ascii">
 0.000000e+00 0.000000e+00 0.000000e+00
 1.550321e-01 -3.644596e-02 0.000000e+00
 3.106915e-02 -1.559842e-01 0.000000e+00
 1.426761e-01 3.055522e-02 0.000000e+00
 0.000000e+00 0.000000e+00 0.000000e+00
 -3.628533e-02 -1.753636e-01 0.000000e+00
 0.000000e+00 0.000000e+00 0.000000e+00
 0.000000e+00 0.000000e+00 0.000000e+00
 0.000000e+00 0.000000e+00 0.000000e+00
 0.000000e+00 0.000000e+00 0.000000e+00
 0.000000e+00 0.000000e+00 0.000000e+00
 0.000000e+00 0.000000e+00 0.000000e+00
 0.000000e+00 0.000000e+00 0.000000e+00
 0.000000e+00 0.000000e+00 0.000000e+00
 0.000000e+00 0.000000e+00 0.000000e+00
 0.000000e+00 0.000000e+00 0.000000e+00
 0.000000e+00 0.000000e+00 0.000000e+00
 0.000000e+00 0.000000e+00 0.000000e+00
 0.000000e+00 0.000000e+00 0.000000e+00
 0.000000e+00 0.000000e+00 0.000000e+00
 0.000000e+00 0.000000e+00 0.000000e+00
 0.000000e+00 0.000000e+00 0.000000e+00
 0.000000e+00 0.000000e+00 0.000000e+00
 0.000000e+00 0.000000e+00 0.000000e+00
 0.000000e+00 0.000000e+00 0.000000e+00
 0.000000e+00 0.000000e+00 0.000000e+00
 0.000000e+00 0.000000e+00 0.000000e+00
 0.000000e+00 0.000000e+00 0.000000e+00
 0.000000e+00 0.000000e+00 0.000000e+00
 0.000000e+00 0.000000e+00 0.000000e+00
 0.000000e+00 0.000000e+00 0.000000e+00
 0.000000e+00 0.000000e+00 0.000000e+00
 2.408236e-02 -3.281644e-01 0.000000e+00
 6.716324e-03 -4.058540e-01 0.000000e+00
 -3.185172e-03 -4.119593e-01 0.000000e+00
 -2.320893e-02 -3.408056e-01 0.000000e+00
 3.421090e-01 -2.564123e-02 0.000000e+00
 4.090214e-01 -6.591445e-03 0.000000e+00
 4.070203e-01 5.366496e-03 0.000000e+00
 3.362426e-01 2.577095e-02 0.000000e+00
 2.042290e-01 -2.189034e-01 0.000000e+00
 3.924719e-02 -4.227995e-01 0.000000e+00
 4.374295e-01 -3.729713e-02 0.000000e+00
 1.184492e-02 -1.213666e-02 0.000000e+00
 3.915049e-02 -2.275667e-01 0.000000e+00
 2.916289e-01 -2.416334e-02 0.000000e+00
 2.243572e-01 3.373263e-02 0.000000e+00
 -3.463103e-02 -2.901261e-01 0.000000e+00
 8.278074e-02 -3.304712e-01 0.000000e+00
 4.102495e-01 -1.914137e-01 0.000000e+00
 4.281884e-01 -2.306742e-03 0.000000e+00
 9.684772e-03 -4.290349e-01 0.000000e+00
 9.461007e-02 -1.000960e-01 0.000000e+00
 2.388532e-01 -6.709191e-02 0.000000e+00
 3.562602e-01 -3.899641e-02 0.000000e+00
 1.200296e-02 -3.673953e-01 0.000000e+00
 1.274310e-02 -3.985362e-01 0.000000e+00
 1.185538e-01 -4.369195e-01 0.000000e+00
 6.833112e-02 -2.215568e-01 0.000000e+00
 3.857270e-01 -6.707280e-03 0.000000e+00
 4.067411e-01 -3.466356e-04 0.000000e+00
 2.463584e-02 -3.339992e-01 0.000000e+00
 2.310360e-02 -4.133864e-01 0.000000e+00
 4.034023e-01 -9.789228e-03 0.000000e+00
 4.085137e-01 8.418105e-03 0.000000e+00
 4.086979e-01 -9.175783e-02 0.000000e+00
 1.354889e-01 -4.095368e-02 0.000000e+00
 3.364212e-01 -9.342308e-02 0.000000e+00
 -8.790049e-03 -3.249007e-01 0.000000e+00
 1.229579e-02 -4.240606e-01 0.000000e+00
 2.596245e-02 -5.352499e-02 0.000000e+00
 8.314591e-03 -3.133312e-01 0.000000e+00
 2.547989e-01 -1.027012e-02 0.000000e+00
 2.590708e-01 -3.514618e-01 0.000000e+00
 3.376857e-01 -1.014461e-02 0.000000e+00
 2.575821e-01 -2.626999e-02 0.000000e+00
 3.747642e-02 -2.397708e-01 0.000000e+00
 2.749494e-03 -4.232928e-01 0.000000e+00
 7.978833e-02 -4.045185e-01 0.000000e+00
 3.469845e-02 -2.982474e-01 0.000000e+00
 1.330461e-01 -2.771184e-01 0.000000e+00
 3.659171e-02 -1.279767e-01 0.000000e+00
 4.356682e-01 -2.954557e-02 0.000000e+00
 4.044261e-01 -7.223102e-02 0.000000e+00
 2.729535e-01 -1.546152e-01 0.000000e+00
 5.622801e-02 -4.384484e-01 0.000000e+00
 2.149345e-02 -4.310358e-01 0.000000e+00
 4.353449e-01 -9.356413e-03 0.000000e+00
 4.202841e-01 -8.077363e-04 0.000000e+00
 3.043943e-01 -4.838289e-03 0.000000e+00
 3.429565e-01 5.979749e-03 0.000000e+00
 1.824585e-01 -1.285910e-01 0.000000e+00
 7.342419e-02 -4.142540e-01 0.000000e+00
 5.480580e-02 -2.903788e-02 0.000000e+00
 6.704201e-03 -3.866305e-01 0.000000e+00
 2.112124e-02 -3.439746e-01 0.000000e+00
 1.540742e-01 -1.847374e-02 0.000000e+00
 9.747405e-03 -3.017479e-01 0.000000e+00
 2.445079e-02 -3.877749e-01 0.000000e+00
 4.009394e-01 -5.019443e-03 0.000000e+00
 -1.238510e-02 -3.933112e-01 0.000000e+00
 2.410807e-02 -3.073097e-01 0.000000e+00
 1.260376e-02 -3.999974e-01 0.000000e+00
 1.593700e-01 -3.725380e-01 0.000000e+00
 1.184780e-01 -1.861960e-01 0.000000e+00
 3.671367e-01 -3.203910e-01 0.000000e+00
 3.060353e-01 1.092411e-03 0.000000e+00
 4.425199e-01 -9.396755e-02 0.000000e+00
 4.213816e-01 2.291890e-03 0.000000e+00
 4.039861e-01 -3.472225e-02 0.000000e+00
 3.045895e-01 -2.520951e-01 0.000000e+00
 4.183528e-01 -1.752361e-02 0.000000e+00
 2.005756e-02 -1.501578e-01 0.000000e+00
 2.646812e-01 3.994793e-03 0.000000e+00
 5.301902e-02 -3.617056e-01 0.000000e+00
 3.025939e-01 -2.999261e-03 0.000000e+00
 4.368099e-02 -3.907867e-01 0.000000e+00
 7.942377e-02 -2.744186e-01 0.000000e+00
 3.802250e-03 -2.459289e-01 0.000000e+00
 3.061512e-01 1.509919e-02 0.000000e+00
 7.587610e-03 -2.957809e-01 0.000000e+00
 1.133608e-02 -1.818061e-01 0.000000e+00
 9.395186e-03 -2.085369e-01 0.000000e+00
 1.856667e-02 -4.290607e-01 0.000000e+00
 3.170746e-02 -4.343610e-01 0.000000e+00
 4.380170e-01 -1.670821e-02 0.000000e+00
 5.859838e-03 -2.118022e-01 0.000000e+00
 1.971723e-02 -4.144710e-01 0.000000e+00
 1.976079e-01 -2.238029e-02 0.000000e+00
 -1.497327e-03 -4.119674e-01 0.000000e+00
 2.112251e-01 -4.339043e-01 0.000000e+00
 2.136733e-01 -2.991113e-01 0.000000e+00
 2.949060e-01 -1.790909e-03 0.000000e+00
 3.484754e-01 -1.659139e-01 0.000000e+00
 4.233037e-01 -7.696562e-03 0.000000e+00
 2.071557e-01 3.699824e-03 0.000000e+00
 3.949080e-01 -1.257613e-01 0.000000e+00
 1.854997e-01 -1.430070e-02 0.000000e+00
 1.983924e-01 -3.615185e-02 0.000000e+00
 0.000000e+00 0.000000e+00 0.000000e+00
 2.460090e-01 -2.025892e-02 0.000000e+00
 3.138451e-01 -1.360253e-01 0.000000e+00
 0.000000e+00 0.000000e+00 0.000000e+00
 4.329787e-03 -9.472821e-03 0.000000e+00
 1.464653e-03 -1.447324e-03 0.000000e+00
 0.000000e+00 0.000000e+00 0.000000e+00
 4.182116e-01 -2.163282e-01 0.000000e+00
 3.232599e-01 -3.263582e-01 0.000000e+00
 -2.398590e-02 -1.903399e-01 0.000000e+00
 -3.797999e-02 -2.064411e-01 0.000000e+00
 0.000000e+00 0.000000e+00 0.000000e+00
 3.332932e-02 -2.826824e-01 0.000000e+00
 3.501958e-02 -1.799194e-01 0.000000e+00
 3.603979e-02 -2.318240e-01 0.000000e+00
 2.226460e-02 -1.389576e-01 0.000000e+00
 0.000000e+00 0.000000e+00 0.000000e+00
 3.154013e-02 -2.705827e-01 0.000000e+00
 1.759376e-02 -2.055154e-01 0.000000e+00
 3.004235e-02 -2.110899e-02 0.000000e+00
 2.527827e-02 -8.633884e-03 0.000000e+00
 9.867875e-03 -4.712597e-03 0.000000e+00
 2.481704e-03 -1.951322e-01 0.000000e+00
 5.636869e-03 -2.026340e-01 0.000000e+00
 0.000000e+00 0.000000e+00 0.000000e+00
 4.496737e-02 -9.947876e-03 0.000000e+00
 0.000000e+00 0.000000e+00 0.000000e+00
 0.000000e+00 0.000000e+00 0.000000e+00
 1.508974e-01 -2.908756e-02 0.000000e+00
 8.705473e-02 -6.145212e-03 0.000000e+00
 1.004742e-01 -1.311308e-02 0.000000e+00
 5.161893e-03 -2.820205e-01 0.000000e+00
 1.153220e-03 -1.454818e-01 0.000000e+00
 1.365202e-03 -1.419816e-01 0.000000e+00
 0.000000e+00 0.000000e+00 0.000000e+00
 4.265679e-02 -4.471364e-02 0.000000e+00
 1.960065e-02 -3.004794e-02 0.000000e+00
 7.665548e-02 -1.332009e-02 0.000000e+00
 0.000000e+00 0.000000e+00 0.000000e+00
 1.025454e-01 -5.588815e-03 0.000000e+00
 0.000000e+00 0.000000e+00 0.000000e+00
 1.756536e-01 -7.483657e-03 0.000000e+00
 1.591844e-01 -9.038704e-03 0.000000e+00
 0.000000e+00 0.000000e+00 0.000000e+00
 3.090814e-01 -5.723748e-02 0.000000e+00
 2.569001e-01 -4.515378e-02 0.000000e+00
 2.885650e-01 -8.305383e-02 0.000000e+00
 1.610424e-01 -2.428595e-03 0.000000e+00
 1.527976e-01 -3.601625e-03 0.000000e+00
 0.000000e+00 0.000000e+00 0.000000e+00
 3.005612e-01 -1.094885e-02 0.000000e+00
 2.233880e-01 -3.436229e-03 0.000000e+00
 2.692873e-01 2.273239e-02 0.000000e+00
 1.969389e-01 9.717627e-03 0.000000e+00
 1.330811e-01 1.575379e-02 0.000000e+00
 7.989314e-03 -2.608485e-01 0.000000e+00
 1.609382e-03 -1.252812e-01 0.000000e+00
 3.051370e-03 -1.907647e-01 0.000000e+00
 2.038372e-03 -1.199350e-01 0.000000e+00
 0.000000e+00 0.000000e+00 0.000000e+00
 1.713282e-01 -2.889198e-01 0.000000e+00
 2.112340e-01 -2.578737e-01 0.000000e+00
 1.685134e-01 -2.514287e-01 0.000000e+00
 2.708452e-02 -2.828292e-01 0.000000e+00
 8.452785e-02 -3.391353e-01 0.000000e+00
 0.000000e+00 0.000000e+00 0.000000e+00
 3.879063e-02 -3.771732e-01 0.000000e+00
 1.104103e-02 -2.282141e-01 0.000000e+00
 1.264321e-02 -3.183703e-01 0.000000e+00
 3.275986e-03 -1.802736e-01 0.000000e+00
 5.966634e-03 -2.108972e-01 0.000000e+00
 1.951029e-03 -1.747497e-01 0.000000e+00
 0.000000e+00 0.000000e+00 0.000000e+00
 9.814709e-03 -4.004653e-01 0.000000e+00
 1.746363e-02 -3.683680e-01 0.000000e+00
 1.327134e-02 -3.809310e-01 0.000000e+00
 2.634327e-01 8.156590e-03 0.000000e+00
 1.192333e-01 2.106656e-03 0.000000e+00
 2.907751e-01 3.377918e-02 0.000000e+00
 1.686645e-01 3.525923e-02 0.000000e+00
 2.343444e-01 3.902263e-02 0.000000e+00
 3.232161e-01 -5.787923e-03 0.000000e+00
 1.901656e-01 -6.840304e-04 0.000000e+00
 2.285143e-01 -2.043732e-03 0.000000e+00
 3.086416e-01 4.627262e-03 0.000000e+00
 1.558518e-01 1.794094e-03 0.000000e+00
 2.215688e-01 2.927457e-03 0.000000e+00
 2.990568e-01 -2.140403e-03 0.000000e+00
 1.802839e-01 -5.235727e-04 0.000000e+00
 0.000000e+00 0.000000e+00 0.000000e+00
 1.523509e-01 2.192721e-03 0.000000e+00
 0.000000e+00 0.000000e+00 0.000000e+00
 3.257184e-03 -1.161212e-01 0.000000e+00
 2.718438e-03 -1.242920e-01 0.000000e+00
 0.000000e+00 0.000000e+00 0.000000e+00
 2.030059e-02 -2.650442e-01 0.000000e+00
 1.735419e-02 -2.818845e-01 0.000000e+00
 2.968168e-02 -3.177937e-01 0.000000e+00
 -8.089121e-03 -2.100118e-01 0.000000e+00
 -5.668728e-04 -2.032326e-01 0.000000e+00
 0.000000e+00 0.000000e+00 0.000000e+00
 2.883494e-02 -1.958863e-01 0.000000e+00
 6.118189e-03 -9.636922e-02 0.000000e+00
 1.196236e-02 -1.511764e-01 0.000000e+00
 4.174170e-01 -5.573228e-03 0.000000e+00
 4.151427e-01 -3.683658e-03 0.000000e+00
 4.074592e-01 -9.442523e-03 0.000000e+00
 1.779239e-01 3.008125e-03 0.000000e+00
 1.771499e-01 3.148024e-03 0.000000e+00
 0.000000e+00 0.000000e+00 0.000000e+00
 6.320115e-03 -8.166418e-02 0.000000e+00
 0.000000e+00 0.000000e+00 0.000000e+00
 1.125383e-02 -6.861418e-02 0.000000e+00
 1.107283e-02 -8.852048e-02 0.000000e+00
 0.000000e+00 0.000000e+00 0.000000e+00
 -1.140196e-03 -4.165079e-01 0.000000e+00
 3.921750e-03 -4.154102e-01 0.000000e+00
 1.945683e-03 -4.152441e-01 0.000000e+00
 -1.803926e-02 -3.677377e-01 0.000000e+00
 -7.606459e-03 -4.035681e-01 0.000000e+00
 -1.090671e-02 -3.914607e-01 0.000000e+00
 3.206738e-01 -2.963949e-02 0.000000e+00
 2.412113e-01 -3.841572e-02 0.000000e+00
 1.922071e-01 -3.776648e-03 0.000000e+00
 1.876591e-01 -1.050890e-03 0.000000e+00
 0.000000e+00 0.000000e+00 0.000000e+00
 4.312834e-01 -1.480549e-02 0.000000e+00
 4.284944e-01 -2.645403e-02 0.000000e+00
 4.378623e-01 -2.016743e-02 0.000000e+00
 4.147482e-01 2.196333e-03 0.000000e+00
 4.130513e-01 -7.097997e-04 0.000000e+00
 -2.219342e-02 -3.554071e-01 0.000000e+00
 -3.034692e-02 -3.151859e-01 0.000000e+00
 -3.585632e-02 -2.460835e-01 0.000000e+00
 2.265604e-01 -1.430893e-01 0.000000e+00
 1.945227e-01 -1.722279e-01 0.000000e+00
 2.407341e-01 -1.885500e-01 0.000000e+00
 1.512275e-01 -1.595282e-01 0.000000e+00
 1.597431e-01 -2.036477e-01 0.000000e+00
 5.965530e-02 -3.986092e-01 0.000000e+00
 4.274374e-02 -4.092139e-01 0.000000e+00
 5.683962e-02 -4.167441e-01 0.000000e+00
 3.672457e-01 -1.610038e-02 0.000000e+00
 3.792854e-01 -1.720449e-02 0.000000e+00
 4.378254e-01 -2.243942e-02 0.000000e+00
 4.410656e-01 -2.733261e-02 0.000000e+00
 4.443323e-01 -3.636872e-02 0.000000e+00
 3.815087e-01 1.592296e-02 0.000000e+00
 4.079553e-01 8.009554e-03 0.000000e+00
 3.862074e-01 1.346350e-02 0.000000e+00
 2.635793e-02 -4.331208e-01 0.000000e+00
 3.666751e-02 -4.317353e-01 0.000000e+00
 2.965083e-02 -4.285337e-01 0.000000e+00
 -1.409301e-02 -3.717585e-01 0.000000e+00
 -1.947655e-02 -3.096779e-01 0.000000e+00
 4.230507e-01 -1.145303e-01 0.000000e+00
 4.041231e-01 -1.560733e-01 0.000000e+00
 4.331395e-01 -1.386809e-01 0.000000e+00
 7.585052e-03 -2.366695e-02 0.000000e+00
 8.225525e-03 -4.042665e-02 0.000000e+00
 0.000000e+00 0.000000e+00 0.000000e+00
 3.903819e-01 -1.419193e-02 0.000000e+00
 7.492363e-02 -1.638748e-01 0.000000e+00
 1.073983e-01 -1.422846e-01 0.000000e+00
 6.472314e-02 -1.215080e-01 0.000000e+00
 4.246657e-01 -8.541165e-02 0.000000e+00
 4.412586e-01 -5.993416e-02 0.000000e+00
 4.260320e-01 -5.580202e-02 0.000000e+00
 3.737140e-01 -8.607847e-02 0.000000e+00
 3.826658e-01 -5.597492e-02 0.000000e+00
 3.513739e-01 -6.327390e-02 0.000000e+00
 1.754555e-02 -3.664297e-01 0.000000e+00
 2.750953e-02 -3.168038e-01 0.000000e+00
 4.345229e-04 -4.221967e-01 0.000000e+00
 4.348732e-03 -4.230086e-01 0.000000e+00
 5.176623e-03 -4.268457e-01 0.000000e+00
 2.248529e-02 -4.034243e-01 0.000000e+00
 2.778697e-02 -4.192942e-01 0.000000e+00
 3.235754e-02 -4.087941e-01 0.000000e+00
 3.700589e-02 -2.703499e-01 0.000000e+00
 5.622565e-02 -3.207148e-01 0.000000e+00
 6.055594e-02 -2.913732e-01 0.000000e+00
 1.147028e-01 -3.938472e-01 0.000000e+00
 1.183376e-01 -3.516747e-01 0.000000e+00
 8.594154e-02 -3.709122e-01 0.000000e+00
 2.925624e-01 -3.948794e-01 0.000000e+00
 2.120219e-01 -4.099736e-01 0.000000e+00
 2.988435e-01 -1.054410e-02 0.000000e+00
 0.000000e+00 0.000000e+00 0.000000e+00
 3.766267e-01 1.304979e-02 0.000000e+00
 3.259791e-01 2.543456e-02 0.000000e+00
 4.038401e-01 -6.413344e-03 0.000000e+00
 4.218319e-01 -4.820653e-03 0.000000e+00
 4.206704e-01 -4.749991e-03 0.000000e+00
 4.475967e-02 -3.338847e-01 0.000000e+00
 6.708197e-02 -3.486434e-01 0.000000e+00
 1.517539e-02 -4.085995e-01 0.000000e+00
 1.627110e-02 -3.973694e-01 0.000000e+00
 1.246118e-02 -3.864408e-01 0.000000e+00
 7.257744e-02 -4.297632e-01 0.000000e+00
 8.261118e-02 -4.407492e-01 0.000000e+00
 9.931309e-02 -4.208627e-01 0.000000e+00
 4.189566e-01 4.005458e-03 0.000000e+00
 4.248243e-01 -1.246729e-03 0.000000e+00
 4.241837e-01 2.457406e-03 0.000000e+00
 3.906610e-01 -1.543187e-02 0.000000e+00
 4.061076e-01 -1.138334e-02 0.000000e+00
 3.651177e-01 -8.423909e-03 0.000000e+00
 4.309104e-01 -2.674703e-03 0.000000e+00
 4.287149e-01 2.514073e-06 0.000000e+00
 4.318071e-01 -4.094656e-03 0.000000e+00
 3.102094e-01 -1.626129e-01 0.000000e+00
 3.435950e-01 -1.269430e-01 0.000000e+00
 3.084368e-01 -1.244306e-01 0.000000e+00
 4.480504e-01 -1.037501e-01 0.000000e+00
 4.407070e-01 -1.659771e-01 0.000000e+00
 1.654479e-01 -8.258999e-02 0.000000e+00
 2.148994e-01 -9.775003e-02 0.000000e+00
 1.872674e-01 -5.503164e-02 0.000000e+00
 1.758845e-01 -2.061264e-02 0.000000e+00
 1.267806e-01 -6.823963e-03 0.000000e+00
 1.277308e-01 -2.312280e-01 0.000000e+00
 9.259875e-02 -2.076789e-01 0.000000e+00
 9.973406e-02 -2.515180e-01 0.000000e+00
 4.055007e-01 -5.104150e-02 0.000000e+00
 3.827884e-01 -3.832712e-02 0.000000e+00
 7.665560e-03 -4.252808e-01 0.000000e+00
 1.138370e-02 -4.292557e-01 0.000000e+00
 1.262091e-02 -4.151187e-01 0.000000e+00
 1.382086e-02 -4.294365e-01 0.000000e+00
 8.384569e-03 -4.189816e-01 0.000000e+00
 1.698328e-02 -3.563081e-01 0.000000e+00
 2.532389e-02 -3.645300e-01 0.000000e+00
 1.605072e-02 -3.224323e-01 0.000000e+00
 7.745658e-03 -4.177565e-01 0.000000e+00
 9.305927e-02 -3.595580e-02 0.000000e+00
 7.763911e-02 -6.207056e-02 0.000000e+00
 1.212350e-01 -7.118054e-02 0.000000e+00
 3.167253e-02 -8.898703e-02 0.000000e+00
 5.720683e-02 -7.972425e-02 0.000000e+00
 1.088129e-02 -3.699305e-01 0.000000e+00
 8.818905e-03 -3.454218e-01 0.000000e+00
 1.300393e-02 -4.153344e-01 0.000000e+00
 1.223769e-02 -4.004116e-01 0.000000e+00
 1.087999e-02 -4.146293e-01 0.000000e+00
 4.126586e-01 -2.529017e-02 0.000000e+00
 3.814931e-01 -2.093892e-02 0.000000e+00
 2.611555e-01 -1.733783e-02 0.000000e+00
 3.125213e-01 -3.472752e-02 0.000000e+00
 3.202064e-01 -2.321595e-02 0.000000e+00
 6.651557e-02 -4.358249e-01 0.000000e+00
 1.053481e-01 -4.453452e-01 0.000000e+00
 3.997280e-01 -2.513901e-01 0.000000e+00
 1.820045e-01 -4.799222e-04 0.000000e+00
 0.000000e+00 0.000000e+00 0.000000e+00
 3.542855e-01 -2.151412e-02 0.000000e+00
 1.045956e-01 -2.781218e-01 0.000000e+00
 8.205766e-02 -3.030717e-01 0.000000e+00
 1.077969e-01 -3.078042e-01 0.000000e+00
 2.784983e-02 -1.430523e-01 0.000000e+00
 4.195490e-02 -1.943666e-01 0.000000e+00
 5.271725e-02 -1.750246e-01 0.000000e+00
 2.508110e-03 -4.030559e-01 0.000000e+00
 -6.129683e-03 -3.831562e-01 0.000000e+00
 -5.461194e-04 -3.587917e-01 0.000000e+00
 2.588304e-01 -2.805016e-01 0.000000e+00
 2.368334e-01 -3.248075e-01 0.000000e+00
 2.885866e-01 -3.024838e-01 0.000000e+00
 3.298113e-02 -3.905130e-01 0.000000e+00
 3.463819e-02 -3.681064e-01 0.000000e+00
 4.009810e-03 -9.631249e-02 0.000000e+00
 3.506619e-03 -1.066282e-01 0.000000e+00
 0.000000e+00 0.000000e+00 0.000000e+00
 4.872148e-02 -3.775104e-01 0.000000e+00
 6.715433e-02 -3.844346e-01 0.000000e+00
 1.889868e-01 -3.392472e-01 0.000000e+00
 1.506134e-01 -3.237611e-01 0.000000e+00
 5.752351e-02 -2.619814e-01 0.000000e+00
 7.465254e-02 -2.483749e-01 0.000000e+00
 5.200832e-02 -2.348657e-01 0.000000e+00
 4.145891e-01 -5.759939e-03 0.000000e+00
 4.278247e-01 -4.783893e-03 0.000000e+00
 3.935076e-01 -1.197168e-02 0.000000e+00
 3.713339e-01 3.339692e-04 0.000000e+00
 4.202559e-01 -9.691093e-03 0.000000e+00
 3.737935e-01 -1.469870e-01 0.000000e+00
 3.652655e-01 -1.111435e-01 0.000000e+00
 4.481005e-01 -6.048894e-02 0.000000e+00
 4.279674e-01 -5.250815e-02 0.000000e+00
 2.591701e-01 -1.083892e-01 0.000000e+00
 3.407674e-01 -2.915394e-01 0.000000e+00
 3.108846e-01 -3.500923e-01 0.000000e+00
 0.000000e+00 0.000000e+00 0.000000e+00
 4.901290e-02 -4.328054e-01 0.000000e+00
 4.203047e-02 -4.358991e-01 0.000000e+00
 2.829598e-02 -4.298023e-01 0.000000e+00
 3.714376e-02 -4.299519e-01 0.000000e+00
 1.604623e-02 -4.280853e-01 0.000000e+00
 1.555673e-02 -4.315027e-01 0.000000e+00
 3.964071e-01 5.374000e-03 0.000000e+00
 4.160393e-01 1.211987e-03 0.000000e+00
 3.781406e-01 4.608290e-03 0.000000e+00
 4.371671e-01 -1.234442e-02 0.000000e+00
 4.270869e-01 -7.315379e-03 0.000000e+00
 4.308661e-01 -5.832746e-03 0.000000e+00
 3.671681e-01 -4.855923e-03 0.000000e+00
 3.736934e-01 -9.271903e-03 0.000000e+00
 2.838542e-01 4.095737e-03 0.000000e+00
 3.555471e-01 3.903944e-03 0.000000e+00
 4.154588e-01 5.338114e-03 0.000000e+00
 1.373429e-01 -1.159246e-01 0.000000e+00
 1.403932e-01 -4.450569e-01 0.000000e+00
 1.565812e-01 -4.397511e-01 0.000000e+00
 8.161095e-03 -3.508985e-01 0.000000e+00
 1.506443e-02 -3.722609e-01 0.000000e+00
 1.401751e-02 -4.001389e-01 0.000000e+00
 2.352956e-03 -2.679990e-01 0.000000e+00
 4.123440e-02 -4.193611e-01 0.000000e+00
 2.376670e-02 -3.886883e-01 0.000000e+00
 2.056282e-01 -4.089724e-02 0.000000e+00
 2.278558e-01 -2.476001e-02 0.000000e+00
 2.273466e-01 -4.274677e-02 0.000000e+00
 7.547136e-03 -2.112749e-01 0.000000e+00
 1.397133e-02 -2.878198e-01 0.000000e+00
 6.157234e-03 -2.776386e-01 0.000000e+00
 7.787717e-03 -3.212012e-01 0.000000e+00
 1.114012e-02 -3.389481e-01 0.000000e+00
 2.133411e-02 -4.248862e-01 0.000000e+00
 1.605634e-02 -4.207421e-01 0.000000e+00
 1.709170e-02 -3.800987e-01 0.000000e+00
 4.215908e-01 -1.167642e-02 0.000000e+00
 4.098652e-01 -7.882881e-03 0.000000e+00
 3.641820e-01 -3.680430e-03 0.000000e+00
 3.517379e-01 -3.714382e-03 0.000000e+00
 3.944134e-01 -5.265261e-03 0.000000e+00
 -7.334264e-03 -4.038021e-01 0.000000e+00
 -3.410083e-03 -4.165889e-01 0.000000e+00
 1.384820e-02 -3.124537e-01 0.000000e+00
 1.346783e-02 -3.716396e-01 0.000000e+00
 1.451548e-01 -4.110546e-01 0.000000e+00
 1.890024e-01 -4.056920e-01 0.000000e+00
 2.446318e-01 -3.964529e-01 0.000000e+00
 2.055598e-01 -3.673099e-01 0.000000e+00
 3.539203e-01 -2.278254e-02 0.000000e+00
 4.014314e-01 -9.657567e-02 0.000000e+00
 3.888772e-01 8.237015e-03 0.000000e+00
 4.233503e-01 -3.855522e-02 0.000000e+00
 2.897765e-01 -2.004166e-01 0.000000e+00