<?xml version="1.0"?>
<VTKFile type="UnstructuredGrid"  version="0.1"  >
<UnstructuredGrid>
<Piece  NumberOfPoints="505" NumberOfCells="928">
<Points>
<DataArray  type="Float32"  NumberOfComponents="3"  format="ascii">
0 0 0
1 0 0
0 1 0
1 0.5 0
0.5 0.5 0
0.5 1 0
0.1 0 0
0.2 0 0
0.3 0 0
0.4 0 0
0.5 0 0
0.6 0 0
0.7 0 0
0.8 0 0
0.9 0 0
0 0.9 0
0 0.8 0
0 0.7 0
0 0.6 0
0 0.5 0
0 0.4 0
0 0.3 0
0 0.2 0
0 0.1 0
0.9 0.5 0
0.8 0.5 0
0.7 0.5 0
0.6 0.5 0
0.5 0.6 0
0.5 0.7 0
0.5 0.8 0
0.5 0.9 0
0.1 1 0
0.2 1 0
0.3 1 0
0.4 1 0
1 0.1 0
1 0.2 0
1 0.3 0
1 0.4 0
0.300178 0.296564 0
0.247566 0.664879 0
0.639694 0.259804 0
0.06564 0.06472 0
0.04439 0.954144 0
0.932418 0.064715 0
0.951013 0.456419 0
0.437622 0.939659 0
0.195334 0.464441 0
0.483382 0.329596 0
0.834786 0.236295 0
0.307228 0.81139 0
0.178229 0.173372 0
0.366998 0.134199 0
0.547485 0.14214 0
0.124832 0.74927 0
0.160163 0.896658 0
0.342556 0.535243 0
0.147651 0.342018 0
0.729803 0.127878 0
0.725981 0.357775 0
0.121369 0.600441 0
0.372954 0.70814 0
0.908503 0.151525 0
0.89851 0.333305 0
0.556275 0.400898 0
0.259184 0.092178 0
0.46329 0.194362 0
0.423773 0.869712 0
0.22823 0.818162 0
0.081292 0.144905 0
0.082979 0.831935 0
0.549999 0.065419 0
0.371537 0.407588 0
0.642628 0.097865 0
0.459835 0.086595 0
0.108565 0.418567 0
0.273082 0.902112 0
0.256598 0.556659 0
0.11951 0.509541 0
0.234147 0.370527 0
0.097453 0.253261 0
0.638438 0.342389 0
0.554656 0.224779 0
0.373432 0.237603 0
0.339663 0.62579 0
0.27079 0.747786 0
0.733958 0.266592 0
0.928527 0.244458 0
0.853116 0.071497 0
0.818426 0.404817 0
0.280194 0.200604 0
0.417859 0.565185 0
0.147241 0.079056 0
0.389149 0.789957 0
0.42808 0.654642 0
0.343469 0.059202 0
0.086765 0.684153 0
0.162043 0.675011 0
0.809252 0.14201 0
0.364337 0.928607 0
0.077532 0.916553 0
0.159064 0.807906 0
0.302124 0.454032 0
0.205909 0.272176 0
0.449664 0.407415 0
0.66041 0.423241 0
0.562201 0.303789 0
0.802658 0.320211 0
0.614551 0.182931 0
0.390944 0.331035 0
0.687136 0.18846 0
0.070577 0.342498 0
0.741087 0.437361 0
0.176989 0.547528 0
0.710251 0.07409 0
0.192845 0.608574 0
0.171114 0.398277 0
0.058959 0.753084 0
0.904 0.425508 0
0.438039 0.730373 0
0.057223 0.475897 0
0.058502 0.552106 0
0.330493 0.750997 0
0.312295 0.699131 0
0.684882 0.307111 0
0.053312 0.627311 0
0.198798 0.743695 0
0.392326 0.069953 0
0.351519 0.860283 0
0.397134 0.477694 0
0.319385 0.371198 0
0.767351 0.069505 0
0.441954 0.271171 0
0.759504 0.192785 0
0.855661 0.457701 0
0.500847 0.264652 0
0.916209 0.0323575 0
0.966209 0.0323575 0
0.95 0 0
0.578137 0.450449 0
0.528137 0.450449 0
0.55 0.5 0
0.03282 0.08236 0
0.03282 0.03236 0
0 0.05 0
0.502969 0.404157 0
0.474832 0.453708 0
0.468811 0.91983 0
0.468811 0.96983 0
0.5 0.95 0
0.072195 0.977072 0
0.022195 0.977072 0
0.05 1 0
0.022195 0.927072 0
0 0.95 0
0.060961 0.935348 0
0.038766 0.908276 0
0.106441 0.071888 0
0.123621 0.039528 0
0.08282 0.03236 0
0.0414895 0.815967 0
0.0414895 0.865968 0
0 0.85 0
0.173621 0.039528 0
0.15 0 0
0.05 0 0
0.301327 0.07569 0
0.321735 0.029601 0
0.279592 0.046089 0
0.070969 0.792509 0
0.0294795 0.776542 0
0.0294795 0.726542 0
0 0.75 0
0.114267 0.111981 0
0.073466 0.104813 0
0.229592 0.046089 0
0.25 0 0
0.371735 0.029601 0
0.35 0 0
0.479917 0.0432975 0
0.429918 0.0432975 0
0.45 0 0
0.461562 0.140479 0
0.413416 0.110397 0
0.415144 0.16428 0
0.574999 0.0327095 0
0.525 0.0327095 0
0.55 0 0
0.596313 0.081642 0
0.621314 0.0489325 0
0.927507 0.440964 0
0.902 0.462754 0
0.925507 0.47821 0
0.0700385 0.655732 0
0.026656 0.663655 0
0.0433825 0.692076 0
0.026656 0.613655 0
0 0.65 0
0.276766 0.370862 0
0.309781 0.333881 0
0.267162 0.333545 0
0.458929 0.582593 0
0.458929 0.532593 0
0.5 0.55 0
0.422969 0.609913 0
0.46404 0.627321 0
0.43306 0.692508 0
0.46902 0.715186 0
0.46404 0.677321 0
0.46902 0.765186 0
0.5 0.75 0
0.180082 0.948329 0
0.130082 0.948329 0
0.15 1 0
0.87983 0.441605 0
0.87783 0.478851 0
0.975507 0.42821 0
0.975507 0.47821 0
1 0.45 0
0.676439 0.0859775 0
0.705125 0.037045 0
0.671314 0.0489325 0
0.779756 0.421089 0
0.770544 0.46868 0
0.809213 0.452408 0
0.738801 0.0717975 0
0.733675 0.0347525 0
0.95 0.5 0
0.720544 0.46868 0
0.75 0.5 0
0.029251 0.526053 0
0.029251 0.576053 0
0 0.55 0
0.089006 0.530824 0
0.0899355 0.576273 0
0.12044 0.554991 0
0.461886 0.884856 0
0.461886 0.834856 0
0.5 0.85 0
0.089571 0.380533 0
0.0352885 0.371249 0
0.0542825 0.409284 0
0.918515 0.197991 0
0.964263 0.222229 0
0.954252 0.175762 0
0.630205 0.46162 0
0.680205 0.46162 0
0.65 0.5 0
0.0352885 0.321249 0
0 0.35 0
0.0487265 0.226631 0
0.0487265 0.276631 0
0 0.25 0
0.286541 0.951056 0
0.236541 0.951056 0
0.25 1 0
0.382169 0.964303 0
0.332168 0.964303 0
0.35 1 0
0.966209 0.0823575 0
1 0.05 0
0.876558 0.0357485 0
0.826558 0.0357485 0
0.85 0 0
0.710547 0.227526 0
0.663415 0.224132 0
0.686826 0.263198 0
0.964263 0.272229 0
1 0.25 0
0.40098 0.934133 0
0.418811 0.96983 0
0.45 1 0
0.326813 0.219104 0
0.290186 0.248584 0
0.336805 0.267084 0
0.243052 0.23639 0
0.253043 0.28437 0
0.224721 0.582616 0
0.220205 0.636726 0
0.252082 0.610769 0
0.92046 0.10812 0
0.954252 0.125762 0
0.66166 0.32475 0
0.662288 0.283458 0
0.639066 0.301096 0
0.949255 0.366653 0
0.949255 0.316653 0
1 0.35 0
0.291542 0.723459 0
0.27993 0.682005 0
0.259178 0.706333 0
0.394055 0.89916 0
0.430698 0.904686 0
0.531524 0.28422 0
0.492115 0.297124 0
0.522791 0.316692 0
0.040646 0.122453 0
0.040646 0.172453 0
0 0.15 0
1 0.15 0
0.151681 0.262718 0
0.192069 0.222774 0
0.137841 0.213317 0
0.558428 0.264284 0
0.600947 0.281797 0
0.597175 0.242291 0
0.508973 0.20957 0
0.551071 0.183459 0
0.505387 0.168251 0
0.118847 0.906605 0
0.088766 0.958276 0
0.3123 0.881198 0
0.329373 0.835836 0
0.290155 0.856751 0
0.18042 0.709353 0
0.223182 0.704287 0
0.204805 0.669945 0
0.114037 0.464054 0
0.157422 0.486991 0
0.15195 0.441504 0
0.279361 0.505346 0
0.248729 0.459236 0
0.225966 0.51055 0
0.423399 0.442555 0
0.448567 0.488847 0
0.892767 0.068106 0
0.65 0 0
0.901255 0.379406 0
0.952 0.412754 0
0.858877 0.146767 0
0.822019 0.189153 0
0.871644 0.19391 0
0.14825 0.528535 0
0.186162 0.505985 0
0.178931 0.775801 0
0.161815 0.746482 0
0.141948 0.778588 0
0.29813 0.591225 0
0.34111 0.580516 0
0.299577 0.545951 0
0.913519 0.288882 0
0.881657 0.240376 0
0.866648 0.2848 0
0.664882 0.143162 0
0.708469 0.158169 0
0.686215 0.112871 0
0.768308 0.293401 0
0.818722 0.278253 0
0.784372 0.251443 0
0.407693 0.254387 0
0.452622 0.232766 0
0.418361 0.215983 0
0.559238 0.352343 0
0.519829 0.365247 0
0.269689 0.146391 0
0.323596 0.167402 0
0.313091 0.113188 0
0.367897 0.0645775 0
0.396163 0.0349765 0
0.220028 0.321352 0
0.17678 0.307097 0
0.190899 0.356272 0
0.584604 0.203855 0
0.581018 0.162535 0
0.250656 0.860137 0
0.267729 0.814776 0
0.359821 0.770477 0
0.31886 0.781193 0
0.348189 0.800674 0
0.124404 0.679582 0
0.141706 0.637726 0
0.104067 0.642297 0
0.216622 0.899385 0
0.203213 0.085617 0
0.162735 0.126214 0
0.218707 0.132775 0
0.0893725 0.199083 0
0.129761 0.159139 0
0.121022 0.819921 0
0.103905 0.790602 0
0.193647 0.813034 0
0.159614 0.852282 0
0.194196 0.85741 0
0.650843 0.185696 0
0.628589 0.140398 0
0.504917 0.076007 0
0.50366 0.114367 0
0.548742 0.103779 0
0.378761 0.595487 0
0.380208 0.550214 0
0.466523 0.368506 0
0.783675 0.0347525 0
0.75 0 0
0.595056 0.120002 0
0.20263 0.384402 0
0.183224 0.431359 0
0.214741 0.417484 0
0.084015 0.29788 0
0.109114 0.342258 0
0.122552 0.29764 0
0.370334 0.82512 0
0.387646 0.864998 0
0.406461 0.829835 0
0.355164 0.351116 0
0.345461 0.389393 0
0.38124 0.369312 0
0.177444 0.641792 0
0.157107 0.604507 0
0.0286115 0.437949 0
0.0286115 0.487949 0
0 0.45 0
0.184917 0.578051 0
0.216794 0.552094 0
0.310754 0.412615 0
0.268135 0.41228 0
0.13984 0.408422 0
0.159382 0.370147 0
0.128108 0.380293 0
0.784378 0.167398 0
0.797145 0.21454 0
0.649424 0.382815 0
0.693196 0.390508 0
0.682209 0.350082 0
0.471401 0.267911 0
0.482069 0.229507 0
0.600319 0.323089 0
0.597356 0.371644 0
0.370215 0.185901 0
0.420304 0.369225 0
0.410601 0.407502 0
0.5 0.65 0
0.293615 0.645334 0
0.325979 0.66246 0
0.342624 0.703635 0
0.356309 0.666965 0
0.24951 0.782974 0
0.289009 0.779588 0
0.810542 0.362514 0
0.76432 0.338993 0
0.772204 0.381296 0
0.70942 0.286852 0
0.705431 0.332443 0
0.729969 0.312184 0
0.831184 0.106754 0
0.88081 0.111511 0
0.700748 0.430301 0
0.733534 0.397568 0
0.850584 0.326758 0
0.229212 0.186988 0
0.407496 0.52144 0
0.369845 0.506468 0
0.413594 0.760165 0
0.405497 0.719256 0
0.381051 0.749049 0
0.444574 0.794979 0
0.383872 0.640216 0
0.400517 0.681391 0
0.355233 0.0967005 0
0.42608 0.078274 0
0.379662 0.102076 0
0.055907 0.589708 0
0.0873405 0.613876 0
0.072862 0.718619 0
0.0918955 0.751177 0
0.105798 0.716711 0
0.234794 0.74574 0
0.213514 0.780928 0
0.143437 0.712141 0
0.72332 0.190623 0
0.744653 0.160332 0
0.788301 0.105758 0
0.748577 0.0986915 0
0.769527 0.134944 0
0.357928 0.894445 0
0.318709 0.915359 0
0.0802555 0.874244 0
0.121571 0.864297 0
0.32234 0.494638 0
0.349629 0.465863 0
0.384335 0.442641 0
0.336831 0.43081 0
0.608343 0.412069 0
0.527752 0.244716 0
0.858468 0.369061 0
0.627123 0.221367 0
0.382188 0.284319 0
0.345561 0.3138 0
0.437163 0.330315 0
0.746731 0.229689 0
0.149179 0.573985 0
0.720027 0.100984 0
0.810234 0.070501 0
0.861213 0.415162 0
0.827831 0.478851 0
0.85 0.5 0
0.082894 0.447232 0
0.0883665 0.492719 0
0.0578625 0.514002 0
0.300642 0.749391 0
0.351723 0.729569 0
0.321394 0.725064 0
0.416449 0.301103 0
0.462668 0.300384 0
0.837044 0.431259 0
</DataArray>
</Points>
<Cells>
<DataArray  type="UInt32"  Name="connectivity"  format="ascii">
1 138 139 
14 137 139 
45 137 138 
137 138 139 
4 141 142 
27 140 142 
65 140 141 
140 141 142 
0 144 145 
23 143 145 
43 143 144 
143 144 145 
4 141 147 
65 141 146 
105 146 147 
141 146 147 
5 149 150 
31 148 150 
47 148 149 
148 149 150 
2 152 153 
32 151 153 
44 151 152 
151 152 153 
2 152 155 
15 154 155 
44 152 154 
152 154 155 
15 154 157 
44 154 156 
101 156 157 
154 156 157 
6 159 160 
43 158 160 
93 158 159 
158 159 160 
15 162 163 
16 161 163 
71 161 162 
161 162 163 
6 159 165 
7 164 165 
93 159 164 
159 164 165 
[...]
<PointData  Vectors="u"> 
<DataArray  type="Float32"  Name="u"  NumberOfComponents="3" format="ascii">
 0.000000e+00 0.000000e+00 0.000000e+00
 -9.765526e-02 2.251217e-02 0.000000e+00
 -1.577847e-02 8.390595e-02 0.000000e+00
 -8.712556e-02 -1.357478e-02 0.000000e+00
 0.000000e+00 0.000000e+00 0.000000e+00
 1.812914e-02 8.633745e-02 0.000000e+00
 0.000000e+00 0.000000e+00 0.000000e+00
 0.000000e+00 0.000000e+00 0.000000e+00
 0.000000e+00 0.000000e+00 0.000000e+00
 0.000000e+00 0.000000e+00 0.000000e+00
 0.000000e+00 0.000000e+00 0.000000e+00
 0.000000e+00 0.000000e+00 0.000000e+00
 0.000000e+00 0.000000e+00 0.000000e+00
 0.000000e+00 0.000000e+00 0.000000e+00
 0.000000e+00 0.000000e+00 0.000000e+00
 0.000000e+00 0.000000e+00 0.000000e+00
 0.000000e+00 0.000000e+00 0.000000e+00
 0.000000e+00 0.000000e+00 0.000000e+00
 0.000000e+00 0.000000e+00 0.000000e+00
 0.000000e+00 0.000000e+00 0.000000e+00
 0.000000e+00 0.000000e+00 0.000000e+00
 0.000000e+00 0.000000e+00 0.000000e+00
 0.000000e+00 0.000000e+00 0.000000e+00
 0.000000e+00 0.000000e+00 0.000000e+00
 0.000000e+00 0.000000e+00 0.000000e+00
 0.000000e+00 0.000000e+00 0.000000e+00
 0.000000e+00 0.000000e+00 0.000000e+00
 0.000000e+00 0.000000e+00 0.000000e+00
 0.000000e+00 0.000000e+00 0.000000e+00
 0.000000e+00 0.000000e+00 0.000000e+00
 0.000000e+00 0.000000e+00 0.000000e+00
 0.000000e+00 0.000000e+00 0.000000e+00
 -1.042732e-02 1.489882e-01 0.000000e+00
 -8.634671e-04 1.224958e-01 0.000000e+00
 1.148436e-04 1.212721e-01 0.000000e+00
 9.594789e-03 1.469301e-01 0.000000e+00
 -1.461901e-01 2.023912e-02 0.000000e+00
 -1.166584e-01 1.815740e-02 0.000000e+00
 -1.212509e-01 1.604299e-02 0.000000e+00
 -1.521426e-01 -1.958587e-03 0.000000e+00
 -6.016310e-02 3.030148e-02 0.000000e+00
 -1.350728e-02 1.161827e-01 0.000000e+00
 -1.143876e-01 3.006197e-02 0.000000e+00
 -1.003856e-02 9.727542e-03 0.000000e+00
 -1.921807e-02 1.222593e-01 0.000000e+00
 -1.416579e-01 2.103737e-02 0.000000e+00
 -1.257971e-01 -1.722045e-02 0.000000e+00
 1.447077e-02 1.419215e-01 0.000000e+00
 -3.190805e-02 9.746212e-02 0.000000e+00
 -1.517639e-01 4.784668e-02 0.000000e+00
 -1.109217e-01 2.399388e-02 0.000000e+00
 -3.182657e-03 1.295189e-01 0.000000e+00
 -4.915018e-02 4.080223e-02 0.000000e+00
 -7.821143e-02 9.079453e-03 0.000000e+00
 -9.004282e-02 1.414581e-02 0.000000e+00
 -4.317372e-03 1.548031e-01 0.000000e+00
 -3.956044e-03 1.419585e-01 0.000000e+00
 -5.437586e-02 1.548205e-01 0.000000e+00
 -2.845141e-02 8.996101e-02 0.000000e+00
 -1.210606e-01 1.580486e-02 0.000000e+00
 -1.880626e-01 2.184579e-02 0.000000e+00
 -9.745379e-03 1.450020e-01 0.000000e+00
 -5.036308e-03 1.635433e-01 0.000000e+00
 -1.342369e-01 1.847066e-02 0.000000e+00
 -1.475202e-01 1.347163e-02 0.000000e+00
 -2.363781e-01 4.119470e-02 0.000000e+00
 -6.796364e-02 1.139621e-02 0.000000e+00
 -7.537373e-02 1.411360e-02 0.000000e+00
 2.953716e-03 1.538379e-01 0.000000e+00
 -4.129883e-03 1.182554e-01 0.000000e+00
 -1.883387e-02 3.802251e-02 0.000000e+00
 -2.810865e-03 1.554386e-01 0.000000e+00
 -8.952844e-02 4.853989e-03 0.000000e+00
 -1.170736e-01 9.652689e-02 0.000000e+00
 -1.101649e-01 1.049203e-02 0.000000e+00
 -8.657951e-02 5.843778e-03 0.000000e+00
 -1.640452e-02 1.164642e-01 0.000000e+00
 -1.308542e-03 1.170821e-01 0.000000e+00
 -3.129201e-02 1.092519e-01 0.000000e+00
 -1.441416e-02 1.326909e-01 0.000000e+00
 -4.641365e-02 6.199788e-02 0.000000e+00
 -1.983907e-02 7.527470e-02 0.000000e+00
 -1.874190e-01 2.915741e-02 0.000000e+00
 -8.989658e-02 2.371555e-02 0.000000e+00
 -6.789831e-02 1.554700e-02 0.000000e+00
 -1.868589e-02 1.547485e-01 0.000000e+00
 -6.822022e-03 1.192970e-01 0.000000e+00
 -1.201203e-01 2.917452e-02 0.000000e+00
 -1.111452e-01 1.910410e-02 0.000000e+00
 -1.367748e-01 8.111362e-03 0.000000e+00
 -1.849410e-01 8.539967e-03 0.000000e+00
 -6.193653e-02 2.164620e-02 0.000000e+00
 -2.951370e-02 1.862890e-01 0.000000e+00
 -3.783100e-02 1.605163e-02 0.000000e+00
 -1.297601e-03 1.627479e-01 0.000000e+00
 -2.683181e-03 1.580435e-01 0.000000e+00
 -6.728321e-02 3.825336e-03 0.000000e+00
 -3.720689e-03 1.504033e-01 0.000000e+00
 -8.969062e-03 1.376752e-01 0.000000e+00
 -1.292347e-01 1.726023e-02 0.000000e+00
 4.010635e-03 1.493455e-01 0.000000e+00
 -9.600046e-03 1.539873e-01 0.000000e+00
 -4.198296e-03 1.434318e-01 0.000000e+00
 -6.705714e-02 9.381893e-02 0.000000e+00
 -4.457541e-02 5.259501e-02 0.000000e+00
 -1.960090e-01 1.097370e-01 0.000000e+00
 -2.057475e-01 1.273730e-02 0.000000e+00
 -1.461134e-01 3.405353e-02 0.000000e+00
 -1.510511e-01 2.217078e-02 0.000000e+00
 -9.170491e-02 2.230156e-02 0.000000e+00
 -1.021349e-01 4.525192e-02 0.000000e+00
 -1.001006e-01 2.484748e-02 0.000000e+00
 -1.008964e-02 9.154260e-02 0.000000e+00
 -1.735394e-01 6.589494e-03 0.000000e+00
 -2.067100e-02 1.193198e-01 0.000000e+00
 -1.164233e-01 6.832275e-03 0.000000e+00
 -1.638481e-02 1.210329e-01 0.000000e+00
 -3.092186e-02 9.294848e-02 0.000000e+00
 -1.428442e-03 1.335900e-01 0.000000e+00
 -1.642879e-01 -3.727215e-03 0.000000e+00
 -6.965017e-04 1.432599e-01 0.000000e+00
 -5.193191e-03 1.072449e-01 0.000000e+00
 -4.001010e-03 1.187025e-01 0.000000e+00
 -5.071868e-03 1.422316e-01 0.000000e+00
 -9.353116e-03 1.352964e-01 0.000000e+00
 -1.511796e-01 2.937423e-02 0.000000e+00
 -2.318567e-03 1.198620e-01 0.000000e+00
 -6.738659e-03 1.256185e-01 0.000000e+00
 -7.677750e-02 4.185077e-03 0.000000e+00
 1.691665e-04 1.484231e-01 0.000000e+00
 -1.191333e-01 1.742479e-01 0.000000e+00
 -7.605510e-02 5.564169e-02 0.000000e+00
 -1.224690e-01 5.948407e-03 0.000000e+00
 -9.053295e-02 2.514051e-02 0.000000e+00
 -1.078113e-01 2.460603e-02 0.000000e+00
 -1.263374e-01 5.076360e-04 0.000000e+00
 -1.011530e-01 2.675636e-02 0.000000e+00
 -9.905678e-02 1.276591e-02 0.000000e+00
 -1.093707e-01 2.340067e-02 0.000000e+00
 0.000000e+00 0.000000e+00 0.000000e+00
 -1.917343e-01 1.675460e-02 0.000000e+00
 -2.166112e-01 5.411670e-02 0.000000e+00
 0.000000e+00 0.000000e+00 0.000000e+00
 -3.846673e-03 8.451773e-03 0.000000e+00
 -1.439826e-03 1.434479e-03 0.000000e+00
 0.000000e+00 0.000000e+00 0.000000e+00
 -2.328228e-01 7.694436e-02 0.000000e+00
 -2.129795e-01 1.331185e-01 0.000000e+00
 9.229754e-03 9.745162e-02 0.000000e+00
 1.927389e-02 1.045935e-01 0.000000e+00
 0.000000e+00 0.000000e+00 0.000000e+00
 -1.639991e-02 1.425605e-01 0.000000e+00
 -1.886641e-02 9.710477e-02 0.000000e+00
 -1.935993e-02 1.224995e-01 0.000000e+00
 -1.000958e-02 7.724579e-02 0.000000e+00
 0.000000e+00 0.000000e+00 0.000000e+00
 -1.393570e-02 1.417016e-01 0.000000e+00
 -6.902614e-03 1.127669e-01 0.000000e+00
 -2.310304e-02 1.422321e-02 0.000000e+00
 -1.905243e-02 5.479139e-03 0.000000e+00
 -8.262441e-03 3.599494e-03 0.000000e+00
 -9.295642e-04 1.099419e-01 0.000000e+00
 -2.025002e-03 1.124361e-01 0.000000e+00
 0.000000e+00 0.000000e+00 0.000000e+00
 -2.994385e-02 4.965930e-03 0.000000e+00
 0.000000e+00 0.000000e+00 0.000000e+00
 0.000000e+00 0.000000e+00 0.000000e+00
 -7.016015e-02 6.633468e-03 0.000000e+00
 -4.120206e-02 1.533478e-03 0.000000e+00
 -5.157423e-02 3.621821e-03 0.000000e+00
 -1.851688e-03 1.466403e-01 0.000000e+00
 -4.400903e-04 8.497312e-02 0.000000e+00
 -4.951995e-04 8.362535e-02 0.000000e+00
 0.000000e+00 0.000000e+00 0.000000e+00
 -3.045590e-02 2.830060e-02 0.000000e+00
 -1.554789e-02 2.272412e-02 0.000000e+00
 -4.439154e-02 4.848458e-03 0.000000e+00
 0.000000e+00 0.000000e+00 0.000000e+00
 -4.442924e-02 1.254151e-03 0.000000e+00
 0.000000e+00 0.000000e+00 0.000000e+00
 -6.635493e-02 2.230615e-03 0.000000e+00
 -6.257339e-02 2.080288e-03 0.000000e+00
 0.000000e+00 0.000000e+00 0.000000e+00
 -8.239748e-02 1.010862e-02 0.000000e+00
 -8.383641e-02 7.290651e-03 0.000000e+00
 -7.529640e-02 1.013365e-02 0.000000e+00
 -6.247955e-02 1.684918e-03 0.000000e+00
 -5.846455e-02 1.579308e-03 0.000000e+00
 0.000000e+00 0.000000e+00 0.000000e+00
 -1.012890e-01 7.485610e-03 0.000000e+00
 -8.568053e-02 3.388348e-03 0.000000e+00
 -1.477573e-01 -1.052849e-02 0.000000e+00
 -1.174596e-01 -5.186928e-03 0.000000e+00
 -8.002682e-02 -1.012451e-02 0.000000e+00
 -3.117794e-03 1.388828e-01 0.000000e+00
 -5.799809e-04 7.535348e-02 0.000000e+00
 -1.124590e-03 1.094796e-01 0.000000e+00
 -7.936672e-04 7.321384e-02 0.000000e+00
 0.000000e+00 0.000000e+00 0.000000e+00
 -5.867762e-02 5.397931e-02 0.000000e+00
 -6.668919e-02 3.978840e-02 0.000000e+00
 -5.434630e-02 4.432670e-02 0.000000e+00
 -5.488962e-03 1.247585e-01 0.000000e+00
 -5.410695e-02 1.566908e-01 0.000000e+00
 0.000000e+00 0.000000e+00 0.000000e+00
 -9.246205e-03 1.703806e-01 0.000000e+00
 -2.000460e-04 1.047937e-01 0.000000e+00
 -1.263877e-03 1.502207e-01 0.000000e+00
 -2.805989e-05 9.095039e-02 0.000000e+00
 -2.464239e-05 1.022963e-01 0.000000e+00
 3.220138e-05 9.056695e-02 0.000000e+00
 0.000000e+00 0.000000e+00 0.000000e+00
 -2.484932e-03 1.307259e-01 0.000000e+00
 -6.187707e-03 1.501617e-01 0.000000e+00
 -3.497385e-03 1.400630e-01 0.000000e+00
 -1.516760e-01 -1.238486e-03 0.000000e+00
 -7.411815e-02 -5.061133e-04 0.000000e+00
 -1.450210e-01 -1.096556e-02 0.000000e+00
 -9.968578e-02 -1.608787e-02 0.000000e+00
 -1.240581e-01 -1.459987e-02 0.000000e+00
 -1.146638e-01 8.698845e-03 0.000000e+00
 -8.126084e-02 2.102794e-03 0.000000e+00
 -9.147186e-02 3.487661e-03 0.000000e+00
 -1.835932e-01 8.061311e-03 0.000000e+00
 -1.069584e-01 1.871880e-03 0.000000e+00
 -1.400400e-01 2.785514e-03 0.000000e+00
 -1.195438e-01 6.386973e-03 0.000000e+00
 -7.959154e-02 1.848722e-03 0.000000e+00
 0.000000e+00 0.000000e+00 0.000000e+00
 -1.123563e-01 2.333888e-03 0.000000e+00
 0.000000e+00 0.000000e+00 0.000000e+00
 -1.441080e-03 7.288620e-02 0.000000e+00
 -1.128537e-03 7.642646e-02 0.000000e+00
 0.000000e+00 0.000000e+00 0.000000e+00
 -8.606727e-03 1.351738e-01 0.000000e+00
 -7.130464e-03 1.415052e-01 0.000000e+00
 -1.206601e-02 1.395071e-01 0.000000e+00
 2.894935e-03 1.079917e-01 0.000000e+00
 5.973576e-04 1.057195e-01 0.000000e+00
 0.000000e+00 0.000000e+00 0.000000e+00
 -1.345505e-02 1.067610e-01 0.000000e+00
 -3.181940e-03 6.515635e-02 0.000000e+00
 -5.797037e-03 9.357315e-02 0.000000e+00
 -1.166401e-01 1.938175e-02 0.000000e+00
 -1.118022e-01 1.850928e-02 0.000000e+00
 -1.246523e-01 1.837001e-02 0.000000e+00
 -1.469683e-01 5.577447e-03 0.000000e+00
 -1.368848e-01 3.894674e-03 0.000000e+00
 0.000000e+00 0.000000e+00 0.000000e+00
 -3.502630e-03 5.756110e-02 0.000000e+00
 0.000000e+00 0.000000e+00 0.000000e+00
 -7.238842e-03 5.069061e-02 0.000000e+00
 -6.427037e-03 6.212970e-02 0.000000e+00
 0.000000e+00 0.000000e+00 0.000000e+00
 -2.570916e-04 1.186984e-01 0.000000e+00
 -9.820749e-04 1.153011e-01 0.000000e+00
 -3.946290e-04 1.142243e-01 0.000000e+00
 6.752535e-03 1.498827e-01 0.000000e+00
 1.715540e-03 1.333498e-01 0.000000e+00
 2.875221e-03 1.380847e-01 0.000000e+00
 -1.456357e-01 2.265201e-02 0.000000e+00
 -1.253992e-01 2.388531e-02 0.000000e+00
 -9.715154e-02 4.237490e-03 0.000000e+00
 -9.022042e-02 2.090012e-03 0.000000e+00
 0.000000e+00 0.000000e+00 0.000000e+00
 -1.044134e-01 2.852607e-02 0.000000e+00
 -1.002023e-01 2.810146e-02 0.000000e+00
 -1.179393e-01 3.019565e-02 0.000000e+00
 -1.139817e-01 1.761055e-02 0.000000e+00
 -1.103288e-01 1.822653e-02 0.000000e+00
 8.674060e-03 1.563422e-01 0.000000e+00
 1.379092e-02 1.465834e-01 0.000000e+00
 1.848524e-02 1.215327e-01 0.000000e+00
 -6.351669e-02 1.617058e-02 0.000000e+00
 -5.810552e-02 2.444972e-02 0.000000e+00
 -6.490837e-02 2.117491e-02 0.000000e+00
 -5.347289e-02 3.450415e-02 0.000000e+00
 -5.159029e-02 3.834936e-02 0.000000e+00
 -2.266590e-02 1.113391e-01 0.000000e+00
 -1.548829e-02 1.164115e-01 0.000000e+00
 -2.089237e-02 1.143259e-01 0.000000e+00
 -1.492608e-01 1.835363e-02 0.000000e+00
 -1.438202e-01 1.882800e-02 0.000000e+00
 -1.688052e-01 2.908202e-02 0.000000e+00
 -1.319244e-01 3.056251e-02 0.000000e+00
 -1.473392e-01 3.103333e-02 0.000000e+00
 -1.536777e-01 6.021449e-03 0.000000e+00
 -1.310888e-01 1.412864e-02 0.000000e+00
 -1.421153e-01 9.772076e-03 0.000000e+00
 -8.022348e-03 1.256193e-01 0.000000e+00
 -1.183200e-02 1.223670e-01 0.000000e+00
 -9.726257e-03 1.176725e-01 0.000000e+00
 4.752029e-03 1.595040e-01 0.000000e+00
 7.019052e-03 1.491697e-01 0.000000e+00
 -1.221626e-01 3.154153e-02 0.000000e+00
 -1.237354e-01 3.485378e-02 0.000000e+00
 -1.522092e-01 3.941070e-02 0.000000e+00
 -6.261823e-03 1.990306e-02 0.000000e+00
 -6.112489e-03 3.245924e-02 0.000000e+00
 0.000000e+00 0.000000e+00 0.000000e+00
 -1.347138e-01 1.792980e-02 0.000000e+00
 -3.408732e-02 7.009630e-02 0.000000e+00
 -4.671688e-02 4.828615e-02 0.000000e+00
 -3.432664e-02 6.035299e-02 0.000000e+00
 -1.107001e-01 2.869015e-02 0.000000e+00
 -1.287809e-01 3.103340e-02 0.000000e+00
 -1.014939e-01 2.776578e-02 0.000000e+00
 -8.111158e-02 1.877477e-02 0.000000e+00
 -8.429087e-02 1.895895e-02 0.000000e+00
 -8.104570e-02 1.442686e-02 0.000000e+00
 -6.279820e-03 1.572505e-01 0.000000e+00
 -1.224139e-02 1.524288e-01 0.000000e+00
 -6.483954e-04 1.295228e-01 0.000000e+00
 -1.619188e-03 1.388178e-01 0.000000e+00
 -2.070217e-03 1.222277e-01 0.000000e+00
 -7.938703e-03 1.316548e-01 0.000000e+00
 -9.496242e-03 1.184573e-01 0.000000e+00
 -1.152852e-02 1.214993e-01 0.000000e+00
 -1.572339e-02 1.253206e-01 0.000000e+00
 -2.250019e-02 1.167976e-01 0.000000e+00
 -2.439275e-02 1.101388e-01 0.000000e+00
 -4.773792e-02 1.044293e-01 0.000000e+00
 -4.583047e-02 8.494231e-02 0.000000e+00
 -3.352684e-02 9.961010e-02 0.000000e+00
 -1.684631e-01 1.509838e-01 0.000000e+00
 -1.421134e-01 1.813938e-01 0.000000e+00
 -1.404439e-01 1.209422e-02 0.000000e+00
 0.000000e+00 0.000000e+00 0.000000e+00
 -1.692967e-01 5.274096e-03 0.000000e+00
 -1.579913e-01 -5.790870e-03 0.000000e+00
 -1.332524e-01 1.775418e-02 0.000000e+00
 -1.144588e-01 2.225975e-02 0.000000e+00
 -1.163917e-01 2.081317e-02 0.000000e+00
 -1.791510e-02 1.275979e-01 0.000000e+00
 -2.618739e-02 1.091305e-01 0.000000e+00
 -5.176181e-03 1.340177e-01 0.000000e+00
 -5.704610e-03 1.408845e-01 0.000000e+00
 -4.325475e-03 1.501958e-01 0.000000e+00
 -2.779150e-02 1.291136e-01 0.000000e+00
 -3.275310e-02 1.578034e-01 0.000000e+00
 -4.124187e-02 1.248122e-01 0.000000e+00
 -1.226824e-01 1.765616e-02 0.000000e+00
 -1.114531e-01 2.132706e-02 0.000000e+00
 -1.242030e-01 2.070813e-02 0.000000e+00
 -1.062766e-01 1.818387e-02 0.000000e+00
 -1.089406e-01 2.077863e-02 0.000000e+00
 -1.166722e-01 1.332343e-02 0.000000e+00
 -1.353755e-01 2.669390e-02 0.000000e+00
 -1.238507e-01 2.436728e-02 0.000000e+00
 -1.136137e-01 2.700070e-02 0.000000e+00
 -7.627276e-02 1.914162e-02 0.000000e+00
 -7.838252e-02 1.802779e-02 0.000000e+00
 -7.156436e-02 1.383005e-02 0.000000e+00
 -1.988571e-01 4.019265e-02 0.000000e+00
 -2.050753e-01 5.410769e-02 0.000000e+00
 -6.906760e-02 1.807250e-02 0.000000e+00
 -7.022991e-02 1.324478e-02 0.000000e+00
 -7.636086e-02 1.027020e-02 0.000000e+00
 -7.235815e-02 3.998205e-03 0.000000e+00
 -5.255724e-02 1.568874e-03 0.000000e+00
 -4.450379e-02 5.609181e-02 0.000000e+00
 -3.656246e-02 7.098848e-02 0.000000e+00
 -3.718180e-02 7.506469e-02 0.000000e+00
 -8.872869e-02 2.318117e-02 0.000000e+00
 -9.012553e-02 1.818317e-02 0.000000e+00
 -2.736176e-03 1.159235e-01 0.000000e+00
 -3.861946e-03 1.178610e-01 0.000000e+00
 -3.022744e-03 1.553797e-01 0.000000e+00
 -4.057828e-03 1.355228e-01 0.000000e+00
 -2.326082e-03 1.490174e-01 0.000000e+00
 -6.387350e-03 1.512501e-01 0.000000e+00
 -9.658910e-03 1.429693e-01 0.000000e+00
 -6.234568e-03 1.505869e-01 0.000000e+00
 -2.363374e-03 1.197643e-01 0.000000e+00
 -5.512431e-02 1.439943e-02 0.000000e+00
 -4.752672e-02 2.991943e-02 0.000000e+00
 -6.195108e-02 2.365065e-02 0.000000e+00
 -1.987154e-02 5.768116e-02 0.000000e+00
 -3.561777e-02 4.443040e-02 0.000000e+00
 -3.592144e-03 1.578340e-01 0.000000e+00
 -3.064630e-03 1.588894e-01 0.000000e+00
 -4.330768e-03 1.282393e-01 0.000000e+00
 -3.864974e-03 1.432564e-01 0.000000e+00
 -3.439856e-03 1.278457e-01 0.000000e+00
 -9.589673e-02 2.390140e-02 0.000000e+00
 -1.013882e-01 1.707468e-02 0.000000e+00
 -8.865382e-02 5.431880e-03 0.000000e+00
 -9.047962e-02 9.464483e-03 0.000000e+00
 -9.645604e-02 9.544440e-03 0.000000e+00
 -2.358083e-02 1.794207e-01 0.000000e+00
 -4.899285e-02 1.852586e-01 0.000000e+00
 -1.814379e-01 7.262195e-02 0.000000e+00
 -8.426796e-02 1.784116e-03 0.000000e+00
 0.000000e+00 0.000000e+00 0.000000e+00
 -1.007630e-01 1.308933e-02 0.000000e+00
 -3.842970e-02 7.651552e-02 0.000000e+00
 -3.164267e-02 9.480821e-02 0.000000e+00
 -3.992762e-02 7.996266e-02 0.000000e+00
 -1.441387e-02 8.564439e-02 0.000000e+00
 -1.929331e-02 9.891727e-02 0.000000e+00
 -2.464882e-02 8.621353e-02 0.000000e+00
 -6.307272e-04 1.573701e-01 0.000000e+00
 1.885933e-03 1.603898e-01 0.000000e+00
 4.578094e-04 1.608960e-01 0.000000e+00
 -9.033044e-02 5.091949e-02 0.000000e+00
 -9.403313e-02 7.237114e-02 0.000000e+00
 -1.140221e-01 6.862214e-02 0.000000e+00
 -1.219806e-02 1.292545e-01 0.000000e+00
 -1.328585e-02 1.341125e-01 0.000000e+00
 -1.933959e-03 6.356421e-02 0.000000e+00
 -1.626856e-03 6.832892e-02 0.000000e+00
 0.000000e+00 0.000000e+00 0.000000e+00
 -1.868415e-02 1.204892e-01 0.000000e+00
 -2.602873e-02 1.082908e-01 0.000000e+00
 -7.480880e-02 7.518882e-02 0.000000e+00
 -5.569686e-02 6.895016e-02 0.000000e+00
 -2.372215e-02 1.075873e-01 0.000000e+00
 -2.979481e-02 9.185571e-02 0.000000e+00
 -2.225039e-02 1.047390e-01 0.000000e+00
 -1.170108e-01 2.104813e-02 0.000000e+00
 -1.087868e-01 2.512352e-02 0.000000e+00
 -2.148478e-01 2.258300e-02 0.000000e+00
 -2.083585e-01 1.779003e-02 0.000000e+00
 -1.890634e-01 2.536627e-02 0.000000e+00
 -9.643128e-02 2.600102e-02 0.000000e+00
 -8.200360e-02 1.945653e-02 0.000000e+00
 -1.693556e-01 3.297346e-02 0.000000e+00
 -2.163160e-01 3.157426e-02 0.000000e+00
 -6.977571e-02 1.139355e-02 0.000000e+00
 -1.453618e-01 7.549947e-02 0.000000e+00
 -1.547570e-01 1.098616e-01 0.000000e+00
 0.000000e+00 0.000000e+00 0.000000e+00
 -1.658753e-02 1.279910e-01 0.000000e+00
 -1.291199e-02 1.442647e-01 0.000000e+00
 -7.424747e-03 1.507787e-01 0.000000e+00
 -1.000022e-02 1.603195e-01 0.000000e+00
 -5.273378e-03 1.167379e-01 0.000000e+00
 -4.914242e-03 1.235310e-01 0.000000e+00
 -1.775308e-01 1.585874e-02 0.000000e+00
 -1.692937e-01 2.242945e-02 0.000000e+00
 -1.915576e-01 1.535352e-02 0.000000e+00
 -1.336409e-01 2.958854e-02 0.000000e+00
 -1.715305e-01 2.639680e-02 0.000000e+00
 -1.521457e-01 2.723147e-02 0.000000e+00
 -1.414948e-01 1.237919e-02 0.000000e+00
 -1.468823e-01 1.529881e-02 0.000000e+00
 -1.898078e-01 9.118408e-03 0.000000e+00
 -2.006793e-01 1.431909e-02 0.000000e+00
 -1.498205e-01 1.780134e-02 0.000000e+00
 -5.790037e-02 3.131231e-02 0.000000e+00
 -7.614397e-02 1.969441e-01 0.000000e+00
 -8.130324e-02 1.695788e-01 0.000000e+00
 -1.193917e-03 1.604008e-01 0.000000e+00
 -2.387335e-03 1.649827e-01 0.000000e+00
 -2.817709e-03 1.631798e-01 0.000000e+00
 1.782899e-05 1.341233e-01 0.000000e+00
 -1.050721e-02 1.734005e-01 0.000000e+00
 -4.191431e-03 1.689397e-01 0.000000e+00
 -7.942122e-02 6.845738e-03 0.000000e+00
 -8.200688e-02 4.797952e-03 0.000000e+00
 -8.169289e-02 6.702129e-03 0.000000e+00
 -3.086801e-03 1.198433e-01 0.000000e+00
 -5.605184e-03 1.448230e-01 0.000000e+00
 -2.332285e-03 1.448786e-01 0.000000e+00
 -2.878710e-03 1.556466e-01 0.000000e+00
 -4.142641e-03 1.557634e-01 0.000000e+00
 -7.061571e-03 1.174264e-01 0.000000e+00
 -5.371651e-03 1.215245e-01 0.000000e+00
 -6.224568e-03 1.471750e-01 0.000000e+00
 -1.041509e-01 2.502797e-02 0.000000e+00
 -1.137667e-01 2.080980e-02 0.000000e+00
 -1.347699e-01 1.173215e-02 0.000000e+00
 -1.283338e-01 1.070720e-02 0.000000e+00
 -1.256123e-01 1.660156e-02 0.000000e+00
 2.033353e-03 1.495078e-01 0.000000e+00
 4.979275e-04 1.307338e-01 0.000000e+00
 -4.791224e-03 1.555383e-01 0.000000e+00
 -4.364758e-03 1.579477e-01 0.000000e+00
 -6.618966e-02 1.250171e-01 0.000000e+00
 -9.189121e-02 1.301225e-01 0.000000e+00
 -1.276150e-01 1.353062e-01 0.000000e+00
 -9.033080e-02 9.749813e-02 0.000000e+00
 -2.256350e-01 2.199557e-02 0.000000e+00
 -9.447746e-02 2.472644e-02 0.000000e+00
 -1.730192e-01 1.086011e-02 0.000000e+00
 -9.630966e-02 2.696197e-02 0.000000e+00