<?xml version="1.0"?>
<VTKFile type="UnstructuredGrid"  version="0.1"  >
<UnstructuredGrid>
<Piece  NumberOfPoints="505" NumberOfCells="928">
<Points>
<DataArray  type="Float32"  NumberOfComponents="3"  format="ascii">
0 0 0
1 0 0
0 1 0
1 0.5 0
0.5 0.5 0
0.5 1 0
0.1 0 0
0.2 0 0
0.3 0 0
0.4 0 0
0.5 0 0
0.6 0 0
0.7 0 0
0.8 0 0
0.9 0 0
0 0.9 0
0 0.8 0
0 0.7 0
0 0.6 0
0 0.5 0
0 0.4 0
0 0.3 0
0 0.2 0
0 0.1 0
0.9 0.5 0
0.8 0.5 0
0.7 0.5 0
0.6 0.5 0
0.5 0.6 0
0.5 0.7 0
0.5 0.8 0
0.5 0.9 0
0.1 1 0
0.2 1 0
0.3 1 0
0.4 1 0
1 0.1 0
1 0.2 0
1 0.3 0
1 0.4 0
0.300178 0.296564 0
0.247566 0.664879 0
0.639694 0.259804 0
0.06564 0.06472 0
0.04439 0.954144 0
0.932418 0.064715 0
0.951013 0.456419 0
0.437622 0.939659 0
0.195334 0.464441 0
0.483382 0.329596 0
0.834786 0.236295 0
0.307228 0.81139 0
0.178229 0.173372 0
0.366998 0.134199 0
0.547485 0.14214 0
0.124832 0.74927 0
0.160163 0.896658 0
0.342556 0.535243 0
0.147651 0.342018 0
0.729803 0.127878 0
0.725981 0.357775 0
0.121369 0.600441 0
0.372954 0.70814 0
0.908503 0.151525 0
0.89851 0.333305 0
0.556275 0.400898 0
0.259184 0.092178 0
0.46329 0.194362 0
0.423773 0.869712 0
0.22823 0.818162 0
0.081292 0.144905 0
0.082979 0.831935 0
0.549999 0.065419 0
0.371537 0.407588 0
0.642628 0.097865 0
0.459835 0.086595 0
0.108565 0.418567 0
0.273082 0.902112 0
0.256598 0.556659 0
0.11951 0.509541 0
0.234147 0.370527 0
0.097453 0.253261 0
0.638438 0.342389 0
0.554656 0.224779 0
0.373432 0.237603 0
0.339663 0.62579 0
0.27079 0.747786 0
0.733958 0.266592 0
0.928527 0.244458 0
0.853116 0.071497 0
0.818426 0.404817 0
0.280194 0.200604 0
0.417859 0.565185 0
0.147241 0.079056 0
0.389149 0.789957 0
0.42808 0.654642 0
0.343469 0.059202 0
0.086765 0.684153 0
0.162043 0.675011 0
0.809252 0.14201 0
0.364337 0.928607 0
0.077532 0.916553 0
0.159064 0.807906 0
0.302124 0.454032 0
0.205909 0.272176 0
0.449664 0.407415 0
0.66041 0.423241 0
0.562201 0.303789 0
0.802658 0.320211 0
0.614551 0.182931 0
0.390944 0.331035 0
0.687136 0.18846 0
0.070577 0.342498 0
0.741087 0.437361 0
0.176989 0.547528 0
0.710251 0.07409 0
0.192845 0.608574 0
0.171114 0.398277 0
0.058959 0.753084 0
0.904 0.425508 0
0.438039 0.730373 0
0.057223 0.475897 0
0.058502 0.552106 0
0.330493 0.750997 0
0.312295 0.699131 0
0.684882 0.307111 0
0.053312 0.627311 0
0.198798 0.743695 0
0.392326 0.069953 0
0.351519 0.860283 0
0.397134 0.477694 0
0.319385 0.371198 0
0.767351 0.069505 0
0.441954 0.271171 0
0.759504 0.192785 0
0.855661 0.457701 0
0.500847 0.264652 0
0.916209 0.0323575 0
0.966209 0.0323575 0
0.95 0 0
0.578137 0.450449 0
0.528137 0.450449 0
0.55 0.5 0
0.03282 0.08236 0
0.03282 0.03236 0
0 0.05 0
0.502969 0.404157 0
0.474832 0.453708 0
0.468811 0.91983 0
0.468811 0.96983 0
0.5 0.95 0
0.072195 0.977072 0
0.022195 0.977072 0
0.05 1 0
0.022195 0.927072 0
0 0.95 0
0.060961 0.935348 0
0.038766 0.908276 0
0.106441 0.071888 0
0.123621 0.039528 0
0.08282 0.03236 0
0.0414895 0.815967 0
0.0414895 0.865968 0
0 0.85 0
0.173621 0.039528 0
0.15 0 0
0.05 0 0
0.301327 0.07569 0
0.321735 0.029601 0
0.279592 0.046089 0
0.070969 0.792509 0
0.0294795 0.776542 0
0.0294795 0.726542 0
0 0.75 0
0.114267 0.111981 0
0.073466 0.104813 0
0.229592 0.046089 0
0.25 0 0
0.371735 0.029601 0
0.35 0 0
0.479917 0.0432975 0
0.429918 0.0432975 0
0.45 0 0
0.461562 0.140479 0
0.413416 0.110397 0
0.415144 0.16428 0
0.574999 0.0327095 0
0.525 0.0327095 0
0.55 0 0
0.596313 0.081642 0
0.621314 0.0489325 0
0.927507 0.440964 0
0.902 0.462754 0
0.925507 0.47821 0
0.0700385 0.655732 0
0.026656 0.663655 0
0.0433825 0.692076 0
0.026656 0.613655 0
0 0.65 0
0.276766 0.370862 0
0.309781 0.333881 0
0.267162 0.333545 0
0.458929 0.582593 0
0.458929 0.532593 0
0.5 0.55 0
0.422969 0.609913 0
0.46404 0.627321 0
0.43306 0.692508 0
0.46902 0.715186 0
0.46404 0.677321 0
0.46902 0.765186 0
0.5 0.75 0
0.180082 0.948329 0
0.130082 0.948329 0
0.15 1 0
0.87983 0.441605 0
0.87783 0.478851 0
0.975507 0.42821 0
0.975507 0.47821 0
1 0.45 0
0.676439 0.0859775 0
0.705125 0.037045 0
0.671314 0.0489325 0
0.779756 0.421089 0
0.770544 0.46868 0
0.809213 0.452408 0
0.738801 0.0717975 0
0.733675 0.0347525 0
0.95 0.5 0
0.720544 0.46868 0
0.75 0.5 0
0.029251 0.526053 0
0.029251 0.576053 0
0 0.55 0
0.089006 0.530824 0
0.0899355 0.576273 0
0.12044 0.554991 0
0.461886 0.884856 0
0.461886 0.834856 0
0.5 0.85 0
0.089571 0.380533 0
0.0352885 0.371249 0
0.0542825 0.409284 0
0.918515 0.197991 0
0.964263 0.222229 0
0.954252 0.175762 0
0.630205 0.46162 0
0.680205 0.46162 0
0.65 0.5 0
0.0352885 0.321249 0
0 0.35 0
0.0487265 0.226631 0
0.0487265 0.276631 0
0 0.25 0
0.286541 0.951056 0
0.236541 0.951056 0
0.25 1 0
0.382169 0.964303 0
0.332168 0.964303 0
0.35 1 0
0.966209 0.0823575 0
1 0.05 0
0.876558 0.0357485 0
0.826558 0.0357485 0
0.85 0 0
0.710547 0.227526 0
0.663415 0.224132 0
0.686826 0.263198 0
0.964263 0.272229 0
1 0.25 0
0.40098 0.934133 0
0.418811 0.96983 0
0.45 1 0
0.326813 0.219104 0
0.290186 0.248584 0
0.336805 0.267084 0
0.243052 0.23639 0
0.253043 0.28437 0
0.224721 0.582616 0
0.220205 0.636726 0
0.252082 0.610769 0
0.92046 0.10812 0
0.954252 0.125762 0
0.66166 0.32475 0
0.662288 0.283458 0
0.639066 0.301096 0
0.949255 0.366653 0
0.949255 0.316653 0
1 0.35 0
0.291542 0.723459 0
0.27993 0.682005 0
0.259178 0.706333 0
0.394055 0.89916 0
0.430698 0.904686 0
0.531524 0.28422 0
0.492115 0.297124 0
0.522791 0.316692 0
0.040646 0.122453 0
0.040646 0.172453 0
0 0.15 0
1 0.15 0
0.151681 0.262718 0
0.192069 0.222774 0
0.137841 0.213317 0
0.558428 0.264284 0
0.600947 0.281797 0
0.597175 0.242291 0
0.508973 0.20957 0
0.551071 0.183459 0
0.505387 0.168251 0
0.118847 0.906605 0
0.088766 0.958276 0
0.3123 0.881198 0
0.329373 0.835836 0
0.290155 0.856751 0
0.18042 0.709353 0
0.223182 0.704287 0
0.204805 0.669945 0
0.114037 0.464054 0
0.157422 0.486991 0
0.15195 0.441504 0
0.279361 0.505346 0
0.248729 0.459236 0
0.225966 0.51055 0
0.423399 0.442555 0
0.448567 0.488847 0
0.892767 0.068106 0
0.65 0 0
0.901255 0.379406 0
0.952 0.412754 0
0.858877 0.146767 0
0.822019 0.189153 0
0.871644 0.19391 0
0.14825 0.528535 0
0.186162 0.505985 0
0.178931 0.775801 0
0.161815 0.746482 0
0.141948 0.778588 0
0.29813 0.591225 0
0.34111 0.580516 0
0.299577 0.545951 0
0.913519 0.288882 0
0.881657 0.240376 0
0.866648 0.2848 0
0.664882 0.143162 0
0.708469 0.158169 0
0.686215 0.112871 0
0.768308 0.293401 0
0.818722 0.278253 0
0.784372 0.251443 0
0.407693 0.254387 0
0.452622 0.232766 0
0.418361 0.215983 0
0.559238 0.352343 0
0.519829 0.365247 0
0.269689 0.146391 0
0.323596 0.167402 0
0.313091 0.113188 0
0.367897 0.0645775 0
0.396163 0.0349765 0
0.220028 0.321352 0
0.17678 0.307097 0
0.190899 0.356272 0
0.584604 0.203855 0
0.581018 0.162535 0
0.250656 0.860137 0
0.267729 0.814776 0
0.359821 0.770477 0
0.31886 0.781193 0
0.348189 0.800674 0
0.124404 0.679582 0
0.141706 0.637726 0
0.104067 0.642297 0
0.216622 0.899385 0
0.203213 0.085617 0
0.162735 0.126214 0
0.218707 0.132775 0
0.0893725 0.199083 0
0.129761 0.159139 0
0.121022 0.819921 0
0.103905 0.790602 0
0.193647 0.813034 0
0.159614 0.852282 0
0.194196 0.85741 0
0.650843 0.185696 0
0.628589 0.140398 0
0.504917 0.076007 0
0.50366 0.114367 0
0.548742 0.103779 0
0.378761 0.595487 0
0.380208 0.550214 0
0.466523 0.368506 0
0.783675 0.0347525 0
0.75 0 0
0.595056 0.120002 0
0.20263 0.384402 0
0.183224 0.431359 0
0.214741 0.417484 0
0.084015 0.29788 0
0.109114 0.342258 0
0.122552 0.29764 0
0.370334 0.82512 0
0.387646 0.864998 0
0.406461 0.829835 0
0.355164 0.351116 0
0.345461 0.389393 0
0.38124 0.369312 0
0.177444 0.641792 0
0.157107 0.604507 0
0.0286115 0.437949 0
0.0286115 0.487949 0
0 0.45 0
0.184917 0.578051 0
0.216794 0.552094 0
0.310754 0.412615 0
0.268135 0.41228 0
0.13984 0.408422 0
0.159382 0.370147 0
0.128108 0.380293 0
0.784378 0.167398 0
0.797145 0.21454 0
0.649424 0.382815 0
0.693196 0.390508 0
0.682209 0.350082 0
0.471401 0.267911 0
0.482069 0.229507 0
0.600319 0.323089 0
0.597356 0.371644 0
0.370215 0.185901 0
0.420304 0.369225 0
0.410601 0.407502 0
0.5 0.65 0
0.293615 0.645334 0
0.325979 0.66246 0
0.342624 0.703635 0
0.356309 0.666965 0
0.24951 0.782974 0
0.289009 0.779588 0
0.810542 0.362514 0
0.76432 0.338993 0
0.772204 0.381296 0
0.70942 0.286852 0
0.705431 0.332443 0
0.729969 0.312184 0
0.831184 0.106754 0
0.88081 0.111511 0
0.700748 0.430301 0
0.733534 0.397568 0
0.850584 0.326758 0
0.229212 0.186988 0
0.407496 0.52144 0
0.369845 0.506468 0
0.413594 0.760165 0
0.405497 0.719256 0
0.381051 0.749049 0
0.444574 0.794979 0
0.383872 0.640216 0
0.400517 0.681391 0
0.355233 0.0967005 0
0.42608 0.078274 0
0.379662 0.102076 0
0.055907 0.589708 0
0.0873405 0.613876 0
0.072862 0.718619 0
0.0918955 0.751177 0
0.105798 0.716711 0
0.234794 0.74574 0
0.213514 0.780928 0
0.143437 0.712141 0
0.72332 0.190623 0
0.744653 0.160332 0
0.788301 0.105758 0
0.748577 0.0986915 0
0.769527 0.134944 0
0.357928 0.894445 0
0.318709 0.915359 0
0.0802555 0.874244 0
0.121571 0.864297 0
0.32234 0.494638 0
0.349629 0.465863 0
0.384335 0.442641 0
0.336831 0.43081 0
0.608343 0.412069 0
0.527752 0.244716 0
0.858468 0.369061 0
0.627123 0.221367 0
0.382188 0.284319 0
0.345561 0.3138 0
0.437163 0.330315 0
0.746731 0.229689 0
0.149179 0.573985 0
0.720027 0.100984 0
0.810234 0.070501 0
0.861213 0.415162 0
0.827831 0.478851 0
0.85 0.5 0
0.082894 0.447232 0
0.0883665 0.492719 0
0.0578625 0.514002 0
0.300642 0.749391 0
0.351723 0.729569 0
0.321394 0.725064 0
0.416449 0.301103 0
0.462668 0.300384 0
0.837044 0.431259 0
</DataArray>
</Points>
<Cells>
<DataArray  type="UInt32"  Name="connectivity"  format="ascii">
1 138 139 
14 137 139 
45 137 138 
137 138 139 
4 141 142 
27 140 142 
65 140 141 
140 141 142 
0 144 145 
23 143 145 
43 143 144 
143 144 145 
4 141 147 
65 141 146 
105 146 147 
141 146 147 
5 149 150 
31 148 150 
47 148 149 
148 149 150 
2 152 153 
32 151 153 
44 151 152 
151 152 153 
2 152 155 
15 154 155 
44 152 154 
152 154 155 
15 154 157 
44 154 156 
101 156 157 
154 156 157 
6 159 160 
43 158 160 
93 158 159 
158 159 160 
15 162 163 
16 161 163 
71 161 162 
161 162 163 
6 159 165 
7 164 165 
93 159 164 
159 164 165 
[...]
<PointData  Vectors="u"> 
<DataArray  type="Float32"  Name="u"  NumberOfComponents="3" format="ascii">
 0.000000e+00 0.000000e+00 0.000000e+00
 -8.056492e-02 2.417305e-02 0.000000e+00
 -1.762875e-02 6.734880e-02 0.000000e+00
 -6.797731e-02 -1.519206e-02 0.000000e+00
 0.000000e+00 0.000000e+00 0.000000e+00
 1.920854e-02 6.717772e-02 0.000000e+00
 0.000000e+00 0.000000e+00 0.000000e+00
 0.000000e+00 0.000000e+00 0.000000e+00
 0.000000e+00 0.000000e+00 0.000000e+00
 0.000000e+00 0.000000e+00 0.000000e+00
 0.000000e+00 0.000000e+00 0.000000e+00
 0.000000e+00 0.000000e+00 0.000000e+00
 0.000000e+00 0.000000e+00 0.000000e+00
 0.000000e+00 0.000000e+00 0.000000e+00
 0.000000e+00 0.000000e+00 0.000000e+00
 0.000000e+00 0.000000e+00 0.000000e+00
 0.000000e+00 0.000000e+00 0.000000e+00
 0.000000e+00 0.000000e+00 0.000000e+00
 0.000000e+00 0.000000e+00 0.000000e+00
 0.000000e+00 0.000000e+00 0.000000e+00
 0.000000e+00 0.000000e+00 0.000000e+00
 0.000000e+00 0.000000e+00 0.000000e+00
 0.000000e+00 0.000000e+00 0.000000e+00
 0.000000e+00 0.000000e+00 0.000000e+00
 0.000000e+00 0.000000e+00 0.000000e+00
 0.000000e+00 0.000000e+00 0.000000e+00
 0.000000e+00 0.000000e+00 0.000000e+00
 0.000000e+00 0.000000e+00 0.000000e+00
 0.000000e+00 0.000000e+00 0.000000e+00
 0.000000e+00 0.000000e+00 0.000000e+00
 0.000000e+00 0.000000e+00 0.000000e+00
 0.000000e+00 0.000000e+00 0.000000e+00
 -1.418828e-02 1.494610e-01 0.000000e+00
 -3.100163e-03 1.481814e-01 0.000000e+00
 2.126916e-03 1.465326e-01 0.000000e+00
 1.322304e-02 1.454933e-01 0.000000e+00
 -1.477879e-01 2.314292e-02 0.000000e+00
 -1.452628e-01 1.811258e-02 0.000000e+00
 -1.461690e-01 1.279482e-02 0.000000e+00
 -1.469448e-01 -5.860907e-03 0.000000e+00
 -7.563311e-02 4.943322e-02 0.000000e+00
 -1.203080e-02 1.516318e-01 0.000000e+00
 -1.480278e-01 2.931250e-02 0.000000e+00
 -6.665834e-03 6.421678e-03 0.000000e+00
 -1.919323e-02 1.059942e-01 0.000000e+00
 -1.300682e-01 2.126222e-02 0.000000e+00
 -1.049077e-01 -1.690117e-02 0.000000e+00
 1.492869e-02 1.258345e-01 0.000000e+00
 -3.561249e-02 1.209665e-01 0.000000e+00
 -1.741616e-01 5.803345e-02 0.000000e+00
 -1.456367e-01 1.962980e-02 0.000000e+00
 -9.360914e-04 1.571371e-01 0.000000e+00
 -4.835944e-02 4.033571e-02 0.000000e+00
 -8.555014e-02 1.217685e-02 0.000000e+00
 -1.107850e-01 1.507297e-02 0.000000e+00
 -3.217937e-03 1.628776e-01 0.000000e+00
 -4.939110e-03 1.615976e-01 0.000000e+00
 -5.741621e-02 1.789764e-01 0.000000e+00
 -2.974033e-02 9.519618e-02 0.000000e+00
 -1.374703e-01 1.300489e-02 0.000000e+00
 -1.928163e-01 1.847202e-02 0.000000e+00
 -8.772329e-03 1.518881e-01 0.000000e+00
 -1.324562e-03 1.686700e-01 0.000000e+00
 -1.549676e-01 1.807360e-02 0.000000e+00
 -1.648157e-01 9.479645e-03 0.000000e+00
 -2.235613e-01 3.960800e-02 0.000000e+00
 -6.148193e-02 1.097228e-02 0.000000e+00
 -1.019715e-01 2.111263e-02 0.000000e+00
 3.907563e-03 1.396230e-01 0.000000e+00
 -2.971345e-03 1.508573e-01 0.000000e+00
 -1.598900e-02 3.059198e-02 0.000000e+00
 -2.479640e-03 1.469481e-01 0.000000e+00
 -8.329593e-02 4.321111e-03 0.000000e+00
 -1.331768e-01 1.198581e-01 0.000000e+00
 -1.158673e-01 9.039632e-03 0.000000e+00
 -8.584708e-02 6.135850e-03 0.000000e+00
 -1.615030e-02 1.156784e-01 0.000000e+00
 -1.141117e-04 1.480251e-01 0.000000e+00
 -3.385116e-02 1.455231e-01 0.000000e+00
 -1.406211e-02 1.375661e-01 0.000000e+00
 -5.487151e-02 8.395070e-02 0.000000e+00
 -1.879247e-02 6.865108e-02 0.000000e+00
 -1.983698e-01 2.787093e-02 0.000000e+00
 -1.241569e-01 2.763209e-02 0.000000e+00
 -8.970190e-02 2.898107e-02 0.000000e+00
 -1.584220e-02 1.760314e-01 0.000000e+00
 -4.578237e-03 1.529084e-01 0.000000e+00
 -1.527960e-01 2.491628e-02 0.000000e+00
 -1.437290e-01 1.661324e-02 0.000000e+00
 -1.269550e-01 7.391926e-03 0.000000e+00
 -1.718028e-01 6.122931e-03 0.000000e+00
 -7.087911e-02 2.921742e-02 0.000000e+00
 -2.630507e-02 1.669139e-01 0.000000e+00
 -3.017829e-02 1.323328e-02 0.000000e+00
 9.366869e-04 1.613579e-01 0.000000e+00
 4.146433e-04 1.354601e-01 0.000000e+00
 -5.760995e-02 3.513612e-03 0.000000e+00
 -2.667457e-03 1.441882e-01 0.000000e+00
 -7.720072e-03 1.586583e-01 0.000000e+00
 -1.490986e-01 1.443761e-02 0.000000e+00
 6.640583e-03 1.600101e-01 0.000000e+00
 -1.022582e-02 1.444047e-01 0.000000e+00
 -3.504045e-03 1.631567e-01 0.000000e+00
 -7.840893e-02 1.270037e-01 0.000000e+00
 -4.953813e-02 6.160997e-02 0.000000e+00
 -2.002041e-01 1.139074e-01 0.000000e+00
 -1.810761e-01 1.099301e-02 0.000000e+00
 -1.717366e-01 3.806484e-02 0.000000e+00
 -1.713351e-01 1.751284e-02 0.000000e+00
 -1.238501e-01 2.197451e-02 0.000000e+00
 -1.256053e-01 6.601597e-02 0.000000e+00
 -1.335809e-01 2.201217e-02 0.000000e+00
 -9.206760e-03 8.170014e-02 0.000000e+00
 -1.471772e-01 5.227589e-03 0.000000e+00
 -2.151621e-02 1.426627e-01 0.000000e+00
 -1.107927e-01 5.380560e-03 0.000000e+00
 -1.616968e-02 1.494889e-01 0.000000e+00
 -3.376746e-02 1.066572e-01 0.000000e+00
 -8.532025e-04 1.181591e-01 0.000000e+00
 -1.468746e-01 -5.013639e-03 0.000000e+00
 1.062602e-03 1.207212e-01 0.000000e+00
 -4.466776e-03 9.487246e-02 0.000000e+00
 -3.238831e-03 1.058155e-01 0.000000e+00
 -2.059831e-03 1.642730e-01 0.000000e+00
 -6.235644e-03 1.632466e-01 0.000000e+00
 -1.745131e-01 2.657627e-02 0.000000e+00
 -1.630133e-03 1.050640e-01 0.000000e+00
 -5.296749e-03 1.552479e-01 0.000000e+00
 -6.961753e-02 4.193396e-03 0.000000e+00
 2.345420e-03 1.633060e-01 0.000000e+00
 -1.221190e-01 1.790355e-01 0.000000e+00
 -9.318102e-02 8.303868e-02 0.000000e+00
 -1.137788e-01 4.612044e-03 0.000000e+00
 -1.192882e-01 3.890568e-02 0.000000e+00
 -1.412328e-01 2.051654e-02 0.000000e+00
 -1.016119e-01 -1.231751e-05 0.000000e+00
 -1.327000e-01 3.580182e-02 0.000000e+00
 -8.230947e-02 1.203474e-02 0.000000e+00
 -9.320334e-02 2.419317e-02 0.000000e+00
 0.000000e+00 0.000000e+00 0.000000e+00
 -1.600321e-01 1.422645e-02 0.000000e+00
 -1.858791e-01 4.650623e-02 0.000000e+00
 0.000000e+00 0.000000e+00 0.000000e+00
 -2.498426e-03 4.956154e-03 0.000000e+00
 -4.256083e-04 4.265430e-04 0.000000e+00
 0.000000e+00 0.000000e+00 0.000000e+00
 -2.257556e-01 7.500774e-02 0.000000e+00
 -1.922155e-01 1.184089e-01 0.000000e+00
 8.647602e-03 7.777317e-02 0.000000e+00
 1.951467e-02 8.534917e-02 0.000000e+00
 0.000000e+00 0.000000e+00 0.000000e+00
 -1.879080e-02 1.338650e-01 0.000000e+00
 -1.974728e-02 7.982097e-02 0.000000e+00
 -2.155509e-02 1.091391e-01 0.000000e+00
 -9.192963e-03 6.175037e-02 0.000000e+00
 0.000000e+00 0.000000e+00 0.000000e+00
 -1.431027e-02 1.277481e-01 0.000000e+00
 -6.608417e-03 9.405990e-02 0.000000e+00
 -1.719606e-02 1.081619e-02 0.000000e+00
 -1.283750e-02 4.033316e-03 0.000000e+00
 -4.766790e-03 2.278625e-03 0.000000e+00
 -6.799994e-04 9.219753e-02 0.000000e+00
 -1.856010e-03 9.450136e-02 0.000000e+00
 0.000000e+00 0.000000e+00 0.000000e+00
 -2.162835e-02 3.838483e-03 0.000000e+00
 0.000000e+00 0.000000e+00 0.000000e+00
 0.000000e+00 0.000000e+00 0.000000e+00
 -6.205333e-02 6.383811e-03 0.000000e+00
 -3.106325e-02 1.132991e-03 0.000000e+00
 -4.121546e-02 3.065099e-03 0.000000e+00
 -1.318088e-03 1.341434e-01 0.000000e+00
 -2.203388e-04 6.807403e-02 0.000000e+00
 -2.189190e-04 6.728697e-02 0.000000e+00
 0.000000e+00 0.000000e+00 0.000000e+00
 -2.534662e-02 2.330556e-02 0.000000e+00
 -1.206241e-02 1.695476e-02 0.000000e+00
 -3.445961e-02 3.975978e-03 0.000000e+00
 0.000000e+00 0.000000e+00 0.000000e+00
 -3.419940e-02 9.795477e-04 0.000000e+00
 0.000000e+00 0.000000e+00 0.000000e+00
 -5.589196e-02 1.932882e-03 0.000000e+00
 -5.207004e-02 1.853083e-03 0.000000e+00
 0.000000e+00 0.000000e+00 0.000000e+00
 -9.821806e-02 1.303250e-02 0.000000e+00
 -8.814160e-02 8.749469e-03 0.000000e+00
 -9.285392e-02 1.567167e-02 0.000000e+00
 -5.040641e-02 1.329267e-03 0.000000e+00
 -4.695075e-02 1.249248e-03 0.000000e+00
 0.000000e+00 0.000000e+00 0.000000e+00
 -1.007290e-01 6.606527e-03 0.000000e+00
 -7.502843e-02 2.767124e-03 0.000000e+00
 -1.275741e-01 -1.090792e-02 0.000000e+00
 -9.393389e-02 -4.999814e-03 0.000000e+00
 -6.183980e-02 -8.986715e-03 0.000000e+00
 -2.226357e-03 1.275507e-01 0.000000e+00
 -2.881768e-04 6.034662e-02 0.000000e+00
 -6.252029e-04 9.249734e-02 0.000000e+00
 -4.905549e-04 5.890782e-02 0.000000e+00
 0.000000e+00 0.000000e+00 0.000000e+00
 -7.153319e-02 8.007776e-02 0.000000e+00
 -8.349769e-02 6.340883e-02 0.000000e+00
 -6.646538e-02 6.575435e-02 0.000000e+00
 -3.366689e-03 9.254780e-02 0.000000e+00
 -4.389977e-02 1.216738e-01 0.000000e+00
 0.000000e+00 0.000000e+00 0.000000e+00
 -5.789258e-03 1.482781e-01 0.000000e+00
 1.169383e-03 7.598490e-02 0.000000e+00
 1.173428e-03 1.275654e-01 0.000000e+00
 7.223221e-04 6.736182e-02 0.000000e+00
 1.135792e-03 7.616805e-02 0.000000e+00
 5.505155e-04 6.826782e-02 0.000000e+00
 0.000000e+00 0.000000e+00 0.000000e+00
 -4.581141e-03 1.542485e-01 0.000000e+00
 -8.875663e-03 1.603894e-01 0.000000e+00
 -7.189464e-03 1.558891e-01 0.000000e+00
 -1.289837e-01 -2.065784e-03 0.000000e+00
 -5.530743e-02 -5.806002e-04 0.000000e+00
 -1.308382e-01 -1.341724e-02 0.000000e+00
 -7.908427e-02 -1.692714e-02 0.000000e+00
 -1.063004e-01 -1.681049e-02 0.000000e+00
 -1.147536e-01 7.170737e-03 0.000000e+00
 -6.639904e-02 1.500637e-03 0.000000e+00
 -8.006926e-02 2.713888e-03 0.000000e+00
 -1.629541e-01 6.179462e-03 0.000000e+00
 -8.241193e-02 1.386294e-03 0.000000e+00
 -1.139525e-01 1.960253e-03 0.000000e+00
 -1.124163e-01 4.948949e-03 0.000000e+00
 -6.500420e-02 1.325707e-03 0.000000e+00
 0.000000e+00 0.000000e+00 0.000000e+00
 -8.671398e-02 1.804900e-03 0.000000e+00
 0.000000e+00 0.000000e+00 0.000000e+00
 -1.081835e-03 5.946259e-02 0.000000e+00
 -7.777726e-04 6.235473e-02 0.000000e+00
 0.000000e+00 0.000000e+00 0.000000e+00
 -7.759472e-03 1.303305e-01 0.000000e+00
 -6.146849e-03 1.370873e-01 0.000000e+00
 -1.141597e-02 1.455782e-01 0.000000e+00
 2.983800e-03 8.708628e-02 0.000000e+00
 9.121925e-04 8.386563e-02 0.000000e+00
 0.000000e+00 0.000000e+00 0.000000e+00
 -1.280440e-02 1.006325e-01 0.000000e+00
 -2.585755e-03 5.345356e-02 0.000000e+00
 -5.018239e-03 8.137365e-02 0.000000e+00
 -1.472503e-01 1.800748e-02 0.000000e+00
 -1.429341e-01 1.738340e-02 0.000000e+00
 -1.501224e-01 1.867808e-02 0.000000e+00
 -1.171108e-01 4.491210e-03 0.000000e+00
 -1.086381e-01 3.127741e-03 0.000000e+00
 0.000000e+00 0.000000e+00 0.000000e+00
 -2.884737e-03 4.660635e-02 0.000000e+00
 0.000000e+00 0.000000e+00 0.000000e+00
 -6.289168e-03 4.088510e-02 0.000000e+00
 -5.629044e-03 5.158913e-02 0.000000e+00
 0.000000e+00 0.000000e+00 0.000000e+00
 1.184124e-03 1.468538e-01 0.000000e+00
 -1.357102e-03 1.452051e-01 0.000000e+00
 -5.426150e-04 1.430377e-01 0.000000e+00
 1.003489e-02 1.543940e-01 0.000000e+00
 4.573280e-03 1.531843e-01 0.000000e+00
 6.392528e-03 1.528357e-01 0.000000e+00
 -1.408926e-01 2.471789e-02 0.000000e+00
 -1.124362e-01 2.628764e-02 0.000000e+00
 -8.005070e-02 3.978071e-03 0.000000e+00
 -7.365553e-02 1.692644e-03 0.000000e+00
 0.000000e+00 0.000000e+00 0.000000e+00
 -1.404307e-01 2.490804e-02 0.000000e+00
 -1.362307e-01 2.614001e-02 0.000000e+00
 -1.511662e-01 2.731375e-02 0.000000e+00
 -1.434557e-01 1.494774e-02 0.000000e+00
 -1.409845e-01 1.640601e-02 0.000000e+00
 1.070252e-02 1.530230e-01 0.000000e+00
 1.617278e-02 1.380631e-01 0.000000e+00
 2.043759e-02 1.057915e-01 0.000000e+00
 -7.880237e-02 2.720661e-02 0.000000e+00
 -7.098267e-02 3.752725e-02 0.000000e+00
 -8.388351e-02 3.785716e-02 0.000000e+00
 -6.087002e-02 4.354543e-02 0.000000e+00
 -6.142402e-02 5.309169e-02 0.000000e+00
 -2.367976e-02 1.450554e-01 0.000000e+00
 -1.478311e-02 1.498894e-01 0.000000e+00
 -2.083497e-02 1.504254e-01 0.000000e+00
 -1.540355e-01 1.895900e-02 0.000000e+00
 -1.548601e-01 2.052399e-02 0.000000e+00
 -1.863805e-01 2.712126e-02 0.000000e+00
 -1.614004e-01 2.872618e-02 0.000000e+00
 -1.725663e-01 3.015172e-02 0.000000e+00
 -1.598822e-01 2.233376e-03 0.000000e+00
 -1.527914e-01 1.047374e-02 0.000000e+00
 -1.541715e-01 5.609114e-03 0.000000e+00
 -5.321760e-03 1.572757e-01 0.000000e+00
 -9.539685e-03 1.562995e-01 0.000000e+00
 -7.679468e-03 1.525186e-01 0.000000e+00
 6.535717e-03 1.580415e-01 0.000000e+00
 7.719822e-03 1.336009e-01 0.000000e+00
 -1.521242e-01 3.829287e-02 0.000000e+00
 -1.518585e-01 4.514699e-02 0.000000e+00
 -1.757657e-01 4.629484e-02 0.000000e+00
 -4.799607e-03 1.373037e-02 0.000000e+00
 -5.022191e-03 2.427256e-02 0.000000e+00
 0.000000e+00 0.000000e+00 0.000000e+00
 -1.529930e-01 1.974958e-02 0.000000e+00
 -3.494032e-02 7.152283e-02 0.000000e+00
 -4.926161e-02 5.191397e-02 0.000000e+00
 -3.360620e-02 5.777323e-02 0.000000e+00
 -1.433227e-01 3.327682e-02 0.000000e+00
 -1.588405e-01 3.256335e-02 0.000000e+00
 -1.364422e-01 2.936544e-02 0.000000e+00
 -1.124555e-01 2.474599e-02 0.000000e+00
 -1.146857e-01 2.141243e-02 0.000000e+00
 -1.062798e-01 1.803418e-02 0.000000e+00
 -7.459108e-03 1.632353e-01 0.000000e+00
 -1.462676e-02 1.482561e-01 0.000000e+00
 1.350173e-03 1.553525e-01 0.000000e+00
 6.123836e-04 1.607952e-01 0.000000e+00
 -2.847743e-04 1.522429e-01 0.000000e+00
 -6.549760e-03 1.575670e-01 0.000000e+00
 -7.912330e-03 1.518545e-01 0.000000e+00
 -1.034910e-02 1.525443e-01 0.000000e+00
 -1.542654e-02 1.272912e-01 0.000000e+00
 -2.375678e-02 1.324794e-01 0.000000e+00
 -2.585204e-02 1.219487e-01 0.000000e+00
 -5.425864e-02 1.402158e-01 0.000000e+00
 -5.353317e-02 1.165805e-01 0.000000e+00
 -3.744122e-02 1.314406e-01 0.000000e+00
 -1.702355e-01 1.528391e-01 0.000000e+00
 -1.272873e-01 1.577424e-01 0.000000e+00
 -1.292484e-01 1.189758e-02 0.000000e+00
 0.000000e+00 0.000000e+00 0.000000e+00
 -1.696712e-01 2.132787e-03 0.000000e+00
 -1.472597e-01 -8.405528e-03 0.000000e+00
 -1.535757e-01 1.589668e-02 0.000000e+00
 -1.462300e-01 1.856876e-02 0.000000e+00
 -1.477270e-01 1.812283e-02 0.000000e+00
 -1.816751e-02 1.421446e-01 0.000000e+00
 -2.844884e-02 1.329691e-01 0.000000e+00
 -4.051721e-03 1.592811e-01 0.000000e+00
 -4.456040e-03 1.616889e-01 0.000000e+00
 -3.379754e-03 1.644540e-01 0.000000e+00
 -2.808994e-02 1.630231e-01 0.000000e+00
 -3.206018e-02 1.803151e-01 0.000000e+00
 -4.458145e-02 1.593186e-01 0.000000e+00
 -1.509252e-01 1.395533e-02 0.000000e+00
 -1.452570e-01 1.782654e-02 0.000000e+00
 -1.535724e-01 1.632848e-02 0.000000e+00
 -1.290278e-01 1.603177e-02 0.000000e+00
 -1.358838e-01 1.770991e-02 0.000000e+00
 -1.278355e-01 1.115886e-02 0.000000e+00
 -1.627993e-01 2.196997e-02 0.000000e+00
 -1.545202e-01 1.949589e-02 0.000000e+00
 -1.479858e-01 2.216374e-02 0.000000e+00
 -1.021993e-01 3.346060e-02 0.000000e+00
 -1.074357e-01 2.843214e-02 0.000000e+00
 -9.653711e-02 2.423379e-02 0.000000e+00
 -2.085941e-01 4.226299e-02 0.000000e+00
 -2.130415e-01 5.750394e-02 0.000000e+00
 -7.117895e-02 2.055096e-02 0.000000e+00
 -7.983292e-02 1.883358e-02 0.000000e+00
 -7.569828e-02 1.145403e-02 0.000000e+00
 -6.374339e-02 3.826237e-03 0.000000e+00
 -4.119090e-02 1.239709e-03 0.000000e+00
 -5.141436e-02 7.137355e-02 0.000000e+00
 -3.966470e-02 7.898880e-02 0.000000e+00
 -4.160279e-02 8.940845e-02 0.000000e+00
 -1.227687e-01 2.474077e-02 0.000000e+00
 -1.173777e-01 1.872223e-02 0.000000e+00
 -1.667633e-03 1.486363e-01 0.000000e+00
 -2.125944e-03 1.507337e-01 0.000000e+00
 -1.636208e-04 1.666506e-01 0.000000e+00
 -1.447242e-03 1.606501e-01 0.000000e+00
 1.833179e-04 1.649061e-01 0.000000e+00
 -5.116539e-03 1.594210e-01 0.000000e+00
 -8.590542e-03 1.572880e-01 0.000000e+00
 -5.053707e-03 1.510807e-01 0.000000e+00
 -2.544114e-03 1.499939e-01 0.000000e+00
 -4.713953e-02 1.282454e-02 0.000000e+00
 -4.276387e-02 2.717800e-02 0.000000e+00
 -5.942898e-02 2.356581e-02 0.000000e+00
 -1.812179e-02 4.991563e-02 0.000000e+00
 -3.272957e-02 3.982373e-02 0.000000e+00
 -3.126067e-03 1.642015e-01 0.000000e+00
 -2.337762e-03 1.585381e-01 0.000000e+00
 -3.490575e-03 1.564084e-01 0.000000e+00
 -3.852723e-03 1.629680e-01 0.000000e+00
 -3.250486e-03 1.556440e-01 0.000000e+00
 -1.289238e-01 2.220803e-02 0.000000e+00
 -1.232163e-01 1.570571e-02 0.000000e+00
 -8.549163e-02 5.253587e-03 0.000000e+00
 -1.005207e-01 1.023520e-02 0.000000e+00
 -1.040317e-01 9.383922e-03 0.000000e+00
 -2.064618e-02 1.824356e-01 0.000000e+00
 -4.816786e-02 1.898775e-01 0.000000e+00
 -1.950893e-01 8.132438e-02 0.000000e+00
 -6.850393e-02 1.308219e-03 0.000000e+00
 0.000000e+00 0.000000e+00 0.000000e+00
 -1.151687e-01 1.232592e-02 0.000000e+00
 -4.394744e-02 9.510723e-02 0.000000e+00
 -3.514613e-02 1.135939e-01 0.000000e+00
 -4.593116e-02 1.034414e-01 0.000000e+00
 -1.350929e-02 7.752756e-02 0.000000e+00
 -1.895154e-02 9.615045e-02 0.000000e+00
 -2.446753e-02 8.450504e-02 0.000000e+00
 1.521630e-03 1.647175e-01 0.000000e+00
 3.679542e-03 1.609397e-01 0.000000e+00
 1.975882e-03 1.526800e-01 0.000000e+00
 -1.110026e-01 7.546417e-02 0.000000e+00
 -1.118670e-01 9.956621e-02 0.000000e+00
 -1.341114e-01 9.111141e-02 0.000000e+00
 -1.127359e-02 1.543806e-01 0.000000e+00
 -1.265218e-02 1.530974e-01 0.000000e+00
 -1.479064e-03 5.135954e-02 0.000000e+00
 -1.244375e-03 5.560817e-02 0.000000e+00
 0.000000e+00 0.000000e+00 0.000000e+00
 -1.900909e-02 1.466187e-01 0.000000e+00
 -2.799847e-02 1.403159e-01 0.000000e+00
 -8.942606e-02 1.059707e-01 0.000000e+00
 -6.691190e-02 9.850283e-02 0.000000e+00
 -2.455967e-02 1.146124e-01 0.000000e+00
 -3.182930e-02 1.011189e-01 0.000000e+00
 -2.268783e-02 1.076144e-01 0.000000e+00
 -1.450717e-01 1.740408e-02 0.000000e+00
 -1.437348e-01 2.068424e-02 0.000000e+00
 -2.074636e-01 2.062905e-02 0.000000e+00
 -1.977252e-01 1.536153e-02 0.000000e+00
 -1.965904e-01 2.271877e-02 0.000000e+00
 -1.267678e-01 3.748625e-02 0.000000e+00
 -1.128751e-01 2.810709e-02 0.000000e+00
 -1.883447e-01 3.388139e-02 0.000000e+00
 -2.153817e-01 3.103022e-02 0.000000e+00
 -8.643005e-02 1.924991e-02 0.000000e+00
 -1.639814e-01 9.189352e-02 0.000000e+00
 -1.671972e-01 1.239013e-01 0.000000e+00
 0.000000e+00 0.000000e+00 0.000000e+00
 -1.455233e-02 1.611549e-01 0.000000e+00
 -9.738862e-03 1.692930e-01 0.000000e+00
 -3.774735e-03 1.690823e-01 0.000000e+00
 -6.123834e-03 1.734262e-01 0.000000e+00
 -3.518789e-03 1.505883e-01 0.000000e+00
 -2.614928e-03 1.547168e-01 0.000000e+00
 -1.822897e-01 1.205811e-02 0.000000e+00
 -1.824228e-01 1.827413e-02 0.000000e+00
 -1.870293e-01 1.216518e-02 0.000000e+00
 -1.623639e-01 2.594272e-02 0.000000e+00
 -1.863533e-01 2.305874e-02 0.000000e+00
 -1.741260e-01 2.324091e-02 0.000000e+00
 -1.467319e-01 1.072328e-02 0.000000e+00
 -1.533240e-01 1.474562e-02 0.000000e+00
 -1.639448e-01 7.562334e-03 0.000000e+00
 -1.878355e-01 1.179010e-02 0.000000e+00
 -1.686457e-01 1.337238e-02 0.000000e+00
 -6.124336e-02 3.513960e-02 0.000000e+00
 -7.355941e-02 1.874135e-01 0.000000e+00
 -8.506567e-02 1.841356e-01 0.000000e+00
 9.229322e-04 1.475304e-01 0.000000e+00
 6.215700e-04 1.545000e-01 0.000000e+00
 1.657459e-04 1.648574e-01 0.000000e+00
 9.439409e-04 1.121464e-01 0.000000e+00
 -6.477078e-03 1.728463e-01 0.000000e+00
 -4.201020e-04 1.599295e-01 0.000000e+00
 -7.745499e-02 7.662512e-03 0.000000e+00
 -7.791204e-02 5.020025e-03 0.000000e+00
 -8.201393e-02 7.909771e-03 0.000000e+00
 -2.341573e-03 1.059837e-01 0.000000e+00
 -4.575211e-03 1.393981e-01 0.000000e+00
 -1.514819e-03 1.336248e-01 0.000000e+00
 -1.986932e-03 1.507824e-01 0.000000e+00
 -2.996707e-03 1.565544e-01 0.000000e+00
 -5.294929e-03 1.513070e-01 0.000000e+00
 -4.018850e-03 1.530917e-01 0.000000e+00
 -4.929216e-03 1.621640e-01 0.000000e+00
 -1.377020e-01 2.137976e-02 0.000000e+00
 -1.407358e-01 1.731824e-02 0.000000e+00
 -1.405812e-01 9.552265e-03 0.000000e+00
 -1.320350e-01 8.545104e-03 0.000000e+00
 -1.438459e-01 1.359484e-02 0.000000e+00
 4.310974e-03 1.622675e-01 0.000000e+00
 2.652707e-03 1.547293e-01 0.000000e+00
 -4.833726e-03 1.461755e-01 0.000000e+00
 -4.603413e-03 1.646524e-01 0.000000e+00
 -7.415126e-02 1.562849e-01 0.000000e+00
 -1.020783e-01 1.557191e-01 0.000000e+00
 -1.377849e-01 1.521099e-01 0.000000e+00
 -1.043860e-01 1.266164e-01 0.000000e+00
 -2.051123e-01 2.016914e-02 0.000000e+00
 -1.278062e-01 3.107331e-02 0.000000e+00
 -1.763633e-01 7.330773e-03 0.000000e+00
 -1.320910e-01 2.662847e-02 0.000000e+00
 -1.028788e-01 4.322226e-02 0.000000e+00