<?xml version="1.0"?>
<VTKFile type="UnstructuredGrid"  version="0.1"  >
<UnstructuredGrid>
<Piece  NumberOfPoints="505" NumberOfCells="928">
<Points>
<DataArray  type="Float32"  NumberOfComponents="3"  format="ascii">
0 0 0
1 0 0
0 1 0
1 0.5 0
0.5 0.5 0
0.5 1 0
0.1 0 0
0.2 0 0
0.3 0 0
0.4 0 0
0.5 0 0
0.6 0 0
0.7 0 0
0.8 0 0
0.9 0 0
0 0.9 0
0 0.8 0
0 0.7 0
0 0.6 0
0 0.5 0
0 0.4 0
0 0.3 0
0 0.2 0
0 0.1 0
0.9 0.5 0
0.8 0.5 0
0.7 0.5 0
0.6 0.5 0
0.5 0.6 0
0.5 0.7 0
0.5 0.8 0
0.5 0.9 0
0.1 1 0
0.2 1 0
0.3 1 0
0.4 1 0
1 0.1 0
1 0.2 0
1 0.3 0
1 0.4 0
0.300178 0.296564 0
0.247566 0.664879 0
0.639694 0.259804 0
0.06564 0.06472 0
0.04439 0.954144 0
0.932418 0.064715 0
0.951013 0.456419 0
0.437622 0.939659 0
0.195334 0.464441 0
0.483382 0.329596 0
0.834786 0.236295 0
0.307228 0.81139 0
0.178229 0.173372 0
0.366998 0.134199 0
0.547485 0.14214 0
0.124832 0.74927 0
0.160163 0.896658 0
0.342556 0.535243 0
0.147651 0.342018 0
0.729803 0.127878 0
0.725981 0.357775 0
0.121369 0.600441 0
0.372954 0.70814 0
0.908503 0.151525 0
0.89851 0.333305 0
0.556275 0.400898 0
0.259184 0.092178 0
0.46329 0.194362 0
0.423773 0.869712 0
0.22823 0.818162 0
0.081292 0.144905 0
0.082979 0.831935 0
0.549999 0.065419 0
0.371537 0.407588 0
0.642628 0.097865 0
0.459835 0.086595 0
0.108565 0.418567 0
0.273082 0.902112 0
0.256598 0.556659 0
0.11951 0.509541 0
0.234147 0.370527 0
0.097453 0.253261 0
0.638438 0.342389 0
0.554656 0.224779 0
0.373432 0.237603 0
0.339663 0.62579 0
0.27079 0.747786 0
0.733958 0.266592 0
0.928527 0.244458 0
0.853116 0.071497 0
0.818426 0.404817 0
0.280194 0.200604 0
0.417859 0.565185 0
0.147241 0.079056 0
0.389149 0.789957 0
0.42808 0.654642 0
0.343469 0.059202 0
0.086765 0.684153 0
0.162043 0.675011 0
0.809252 0.14201 0
0.364337 0.928607 0
0.077532 0.916553 0
0.159064 0.807906 0
0.302124 0.454032 0
0.205909 0.272176 0
0.449664 0.407415 0
0.66041 0.423241 0
0.562201 0.303789 0
0.802658 0.320211 0
0.614551 0.182931 0
0.390944 0.331035 0
0.687136 0.18846 0
0.070577 0.342498 0
0.741087 0.437361 0
0.176989 0.547528 0
0.710251 0.07409 0
0.192845 0.608574 0
0.171114 0.398277 0
0.058959 0.753084 0
0.904 0.425508 0
0.438039 0.730373 0
0.057223 0.475897 0
0.058502 0.552106 0
0.330493 0.750997 0
0.312295 0.699131 0
0.684882 0.307111 0
0.053312 0.627311 0
0.198798 0.743695 0
0.392326 0.069953 0
0.351519 0.860283 0
0.397134 0.477694 0
0.319385 0.371198 0
0.767351 0.069505 0
0.441954 0.271171 0
0.759504 0.192785 0
0.855661 0.457701 0
0.500847 0.264652 0
0.916209 0.0323575 0
0.966209 0.0323575 0
0.95 0 0
0.578137 0.450449 0
0.528137 0.450449 0
0.55 0.5 0
0.03282 0.08236 0
0.03282 0.03236 0
0 0.05 0
0.502969 0.404157 0
0.474832 0.453708 0
0.468811 0.91983 0
0.468811 0.96983 0
0.5 0.95 0
0.072195 0.977072 0
0.022195 0.977072 0
0.05 1 0
0.022195 0.927072 0
0 0.95 0
0.060961 0.935348 0
0.038766 0.908276 0
0.106441 0.071888 0
0.123621 0.039528 0
0.08282 0.03236 0
0.0414895 0.815967 0
0.0414895 0.865968 0
0 0.85 0
0.173621 0.039528 0
0.15 0 0
0.05 0 0
0.301327 0.07569 0
0.321735 0.029601 0
0.279592 0.046089 0
0.070969 0.792509 0
0.0294795 0.776542 0
0.0294795 0.726542 0
0 0.75 0
0.114267 0.111981 0
0.073466 0.104813 0
0.229592 0.046089 0
0.25 0 0
0.371735 0.029601 0
0.35 0 0
0.479917 0.0432975 0
0.429918 0.0432975 0
0.45 0 0
0.461562 0.140479 0
0.413416 0.110397 0
0.415144 0.16428 0
0.574999 0.0327095 0
0.525 0.0327095 0
0.55 0 0
0.596313 0.081642 0
0.621314 0.0489325 0
0.927507 0.440964 0
0.902 0.462754 0
0.925507 0.47821 0
0.0700385 0.655732 0
0.026656 0.663655 0
0.0433825 0.692076 0
0.026656 0.613655 0
0 0.65 0
0.276766 0.370862 0
0.309781 0.333881 0
0.267162 0.333545 0
0.458929 0.582593 0
0.458929 0.532593 0
0.5 0.55 0
0.422969 0.609913 0
0.46404 0.627321 0
0.43306 0.692508 0
0.46902 0.715186 0
0.46404 0.677321 0
0.46902 0.765186 0
0.5 0.75 0
0.180082 0.948329 0
0.130082 0.948329 0
0.15 1 0
0.87983 0.441605 0
0.87783 0.478851 0
0.975507 0.42821 0
0.975507 0.47821 0
1 0.45 0
0.676439 0.0859775 0
0.705125 0.037045 0
0.671314 0.0489325 0
0.779756 0.421089 0
0.770544 0.46868 0
0.809213 0.452408 0
0.738801 0.0717975 0
0.733675 0.0347525 0
0.95 0.5 0
0.720544 0.46868 0
0.75 0.5 0
0.029251 0.526053 0
0.029251 0.576053 0
0 0.55 0
0.089006 0.530824 0
0.0899355 0.576273 0
0.12044 0.554991 0
0.461886 0.884856 0
0.461886 0.834856 0
0.5 0.85 0
0.089571 0.380533 0
0.0352885 0.371249 0
0.0542825 0.409284 0
0.918515 0.197991 0
0.964263 0.222229 0
0.954252 0.175762 0
0.630205 0.46162 0
0.680205 0.46162 0
0.65 0.5 0
0.0352885 0.321249 0
0 0.35 0
0.0487265 0.226631 0
0.0487265 0.276631 0
0 0.25 0
0.286541 0.951056 0
0.236541 0.951056 0
0.25 1 0
0.382169 0.964303 0
0.332168 0.964303 0
0.35 1 0
0.966209 0.0823575 0
1 0.05 0
0.876558 0.0357485 0
0.826558 0.0357485 0
0.85 0 0
0.710547 0.227526 0
0.663415 0.224132 0
0.686826 0.263198 0
0.964263 0.272229 0
1 0.25 0
0.40098 0.934133 0
0.418811 0.96983 0
0.45 1 0
0.326813 0.219104 0
0.290186 0.248584 0
0.336805 0.267084 0
0.243052 0.23639 0
0.253043 0.28437 0
0.224721 0.582616 0
0.220205 0.636726 0
0.252082 0.610769 0
0.92046 0.10812 0
0.954252 0.125762 0
0.66166 0.32475 0
0.662288 0.283458 0
0.639066 0.301096 0
0.949255 0.366653 0
0.949255 0.316653 0
1 0.35 0
0.291542 0.723459 0
0.27993 0.682005 0
0.259178 0.706333 0
0.394055 0.89916 0
0.430698 0.904686 0
0.531524 0.28422 0
0.492115 0.297124 0
0.522791 0.316692 0
0.040646 0.122453 0
0.040646 0.172453 0
0 0.15 0
1 0.15 0
0.151681 0.262718 0
0.192069 0.222774 0
0.137841 0.213317 0
0.558428 0.264284 0
0.600947 0.281797 0
0.597175 0.242291 0
0.508973 0.20957 0
0.551071 0.183459 0
0.505387 0.168251 0
0.118847 0.906605 0
0.088766 0.958276 0
0.3123 0.881198 0
0.329373 0.835836 0
0.290155 0.856751 0
0.18042 0.709353 0
0.223182 0.704287 0
0.204805 0.669945 0
0.114037 0.464054 0
0.157422 0.486991 0
0.15195 0.441504 0
0.279361 0.505346 0
0.248729 0.459236 0
0.225966 0.51055 0
0.423399 0.442555 0
0.448567 0.488847 0
0.892767 0.068106 0
0.65 0 0
0.901255 0.379406 0
0.952 0.412754 0
0.858877 0.146767 0
0.822019 0.189153 0
0.871644 0.19391 0
0.14825 0.528535 0
0.186162 0.505985 0
0.178931 0.775801 0
0.161815 0.746482 0
0.141948 0.778588 0
0.29813 0.591225 0
0.34111 0.580516 0
0.299577 0.545951 0
0.913519 0.288882 0
0.881657 0.240376 0
0.866648 0.2848 0
0.664882 0.143162 0
0.708469 0.158169 0
0.686215 0.112871 0
0.768308 0.293401 0
0.818722 0.278253 0
0.784372 0.251443 0
0.407693 0.254387 0
0.452622 0.232766 0
0.418361 0.215983 0
0.559238 0.352343 0
0.519829 0.365247 0
0.269689 0.146391 0
0.323596 0.167402 0
0.313091 0.113188 0
0.367897 0.0645775 0
0.396163 0.0349765 0
0.220028 0.321352 0
0.17678 0.307097 0
0.190899 0.356272 0
0.584604 0.203855 0
0.581018 0.162535 0
0.250656 0.860137 0
0.267729 0.814776 0
0.359821 0.770477 0
0.31886 0.781193 0
0.348189 0.800674 0
0.124404 0.679582 0
0.141706 0.637726 0
0.104067 0.642297 0
0.216622 0.899385 0
0.203213 0.085617 0
0.162735 0.126214 0
0.218707 0.132775 0
0.0893725 0.199083 0
0.129761 0.159139 0
0.121022 0.819921 0
0.103905 0.790602 0
0.193647 0.813034 0
0.159614 0.852282 0
0.194196 0.85741 0
0.650843 0.185696 0
0.628589 0.140398 0
0.504917 0.076007 0
0.50366 0.114367 0
0.548742 0.103779 0
0.378761 0.595487 0
0.380208 0.550214 0
0.466523 0.368506 0
0.783675 0.0347525 0
0.75 0 0
0.595056 0.120002 0
0.20263 0.384402 0
0.183224 0.431359 0
0.214741 0.417484 0
0.084015 0.29788 0
0.109114 0.342258 0
0.122552 0.29764 0
0.370334 0.82512 0
0.387646 0.864998 0
0.406461 0.829835 0
0.355164 0.351116 0
0.345461 0.389393 0
0.38124 0.369312 0
0.177444 0.641792 0
0.157107 0.604507 0
0.0286115 0.437949 0
0.0286115 0.487949 0
0 0.45 0
0.184917 0.578051 0
0.216794 0.552094 0
0.310754 0.412615 0
0.268135 0.41228 0
0.13984 0.408422 0
0.159382 0.370147 0
0.128108 0.380293 0
0.784378 0.167398 0
0.797145 0.21454 0
0.649424 0.382815 0
0.693196 0.390508 0
0.682209 0.350082 0
0.471401 0.267911 0
0.482069 0.229507 0
0.600319 0.323089 0
0.597356 0.371644 0
0.370215 0.185901 0
0.420304 0.369225 0
0.410601 0.407502 0
0.5 0.65 0
0.293615 0.645334 0
0.325979 0.66246 0
0.342624 0.703635 0
0.356309 0.666965 0
0.24951 0.782974 0
0.289009 0.779588 0
0.810542 0.362514 0
0.76432 0.338993 0
0.772204 0.381296 0
0.70942 0.286852 0
0.705431 0.332443 0
0.729969 0.312184 0
0.831184 0.106754 0
0.88081 0.111511 0
0.700748 0.430301 0
0.733534 0.397568 0
0.850584 0.326758 0
0.229212 0.186988 0
0.407496 0.52144 0
0.369845 0.506468 0
0.413594 0.760165 0
0.405497 0.719256 0
0.381051 0.749049 0
0.444574 0.794979 0
0.383872 0.640216 0
0.400517 0.681391 0
0.355233 0.0967005 0
0.42608 0.078274 0
0.379662 0.102076 0
0.055907 0.589708 0
0.0873405 0.613876 0
0.072862 0.718619 0
0.0918955 0.751177 0
0.105798 0.716711 0
0.234794 0.74574 0
0.213514 0.780928 0
0.143437 0.712141 0
0.72332 0.190623 0
0.744653 0.160332 0
0.788301 0.105758 0
0.748577 0.0986915 0
0.769527 0.134944 0
0.357928 0.894445 0
0.318709 0.915359 0
0.0802555 0.874244 0
0.121571 0.864297 0
0.32234 0.494638 0
0.349629 0.465863 0
0.384335 0.442641 0
0.336831 0.43081 0
0.608343 0.412069 0
0.527752 0.244716 0
0.858468 0.369061 0
0.627123 0.221367 0
0.382188 0.284319 0
0.345561 0.3138 0
0.437163 0.330315 0
0.746731 0.229689 0
0.149179 0.573985 0
0.720027 0.100984 0
0.810234 0.070501 0
0.861213 0.415162 0
0.827831 0.478851 0
0.85 0.5 0
0.082894 0.447232 0
0.0883665 0.492719 0
0.0578625 0.514002 0
0.300642 0.749391 0
0.351723 0.729569 0
0.321394 0.725064 0
0.416449 0.301103 0
0.462668 0.300384 0
0.837044 0.431259 0
</DataArray>
</Points>
<Cells>
<DataArray  type="UInt32"  Name="connectivity"  format="ascii">
1 138 139 
14 137 139 
45 137 138 
137 138 139 
4 141 142 
27 140 142 
65 140 141 
140 141 142 
0 144 145 
23 143 145 
43 143 144 
143 144 145 
4 141 147 
65 141 146 
105 146 147 
141 146 147 
5 149 150 
31 148 150 
47 148 149 
148 149 150 
2 152 153 
32 151 153 
44 151 152 
151 152 153 
2 152 155 
15 154 155 
44 152 154 
152 154 155 
15 154 157 
44 154 156 
101 156 157 
154 156 157 
6 159 160 
43 158 160 
93 158 159 
158 159 160 
15 162 163 
16 161 163 
71 161 162 
161 162 163 
6 159 165 
7 164 165 
93 159 164 
159 164 165 
[...]
<PointData  Vectors="u"> 
<DataArray  type="Float32"  Name="u"  NumberOfComponents="3" format="ascii">
 0.000000e+00 0.000000e+00 0.000000e+00
 -3.221759e-02 -2.899445e-03 0.000000e+00
 9.974748e-03 2.398408e-02 0.000000e+00
 -3.711819e-02 6.638623e-03 0.000000e+00
 0.000000e+00 0.000000e+00 0.000000e+00
 -1.070846e-02 2.193479e-02 0.000000e+00
 0.000000e+00 0.000000e+00 0.000000e+00
 0.000000e+00 0.000000e+00 0.000000e+00
 0.000000e+00 0.000000e+00 0.000000e+00
 0.000000e+00 0.000000e+00 0.000000e+00
 0.000000e+00 0.000000e+00 0.000000e+00
 0.000000e+00 0.000000e+00 0.000000e+00
 0.000000e+00 0.000000e+00 0.000000e+00
 0.000000e+00 0.000000e+00 0.000000e+00
 0.000000e+00 0.000000e+00 0.000000e+00
 0.000000e+00 0.000000e+00 0.000000e+00
 0.000000e+00 0.000000e+00 0.000000e+00
 0.000000e+00 0.000000e+00 0.000000e+00
 0.000000e+00 0.000000e+00 0.000000e+00
 0.000000e+00 0.000000e+00 0.000000e+00
 0.000000e+00 0.000000e+00 0.000000e+00
 0.000000e+00 0.000000e+00 0.000000e+00
 0.000000e+00 0.000000e+00 0.000000e+00
 0.000000e+00 0.000000e+00 0.000000e+00
 0.000000e+00 0.000000e+00 0.000000e+00
 0.000000e+00 0.000000e+00 0.000000e+00
 0.000000e+00 0.000000e+00 0.000000e+00
 0.000000e+00 0.000000e+00 0.000000e+00
 0.000000e+00 0.000000e+00 0.000000e+00
 0.000000e+00 0.000000e+00 0.000000e+00
 0.000000e+00 0.000000e+00 0.000000e+00
 0.000000e+00 0.000000e+00 0.000000e+00
 1.558877e-02 -4.419886e-02 0.000000e+00
 8.621378e-03 -1.449599e-01 0.000000e+00
 -5.858880e-03 -1.503390e-01 0.000000e+00
 -1.559442e-02 -5.362826e-02 0.000000e+00
 5.866216e-02 5.202325e-05 0.000000e+00
 1.657233e-01 1.434303e-02 0.000000e+00
 1.497536e-01 2.342288e-02 0.000000e+00
 3.146654e-02 1.761344e-02 0.000000e+00
 7.279067e-02 -1.198592e-01 0.000000e+00
 9.807521e-03 -1.787982e-01 0.000000e+00
 1.855980e-01 1.831999e-03 0.000000e+00
 -9.163061e-03 8.904744e-03 0.000000e+00
 5.986453e-03 1.585078e-02 0.000000e+00
 1.087455e-02 3.122303e-03 0.000000e+00
 -3.471038e-02 3.143118e-03 0.000000e+00
 -7.837184e-03 -4.960201e-03 0.000000e+00
 2.150385e-02 -1.225909e-01 0.000000e+00
 1.191922e-01 -8.410389e-02 0.000000e+00
 1.889435e-01 3.065249e-02 0.000000e+00
 1.165490e-04 -1.616629e-01 0.000000e+00
 3.731650e-03 -1.625050e-02 0.000000e+00
 7.045275e-02 -3.428557e-02 0.000000e+00
 1.484661e-01 -1.231270e-02 0.000000e+00
 2.485152e-03 -6.952940e-02 0.000000e+00
 7.756305e-03 -1.180625e-01 0.000000e+00
 2.219284e-02 -1.521881e-01 0.000000e+00
 1.001351e-02 -4.165283e-02 0.000000e+00
 1.361406e-01 1.574649e-02 0.000000e+00
 5.110702e-02 2.287423e-02 0.000000e+00
 3.964152e-03 -5.509179e-02 0.000000e+00
 2.555109e-03 -9.348241e-02 0.000000e+00
 1.382427e-01 1.450755e-02 0.000000e+00
 1.123501e-01 2.635439e-02 0.000000e+00
 -2.040489e-02 -1.415989e-02 0.000000e+00
 1.891804e-03 -1.169581e-02 0.000000e+00
 1.511107e-01 -5.269318e-02 0.000000e+00
 -3.813795e-03 -1.561388e-02 0.000000e+00
 3.447083e-03 -1.723136e-01 0.000000e+00
 -8.016944e-03 1.935412e-02 0.000000e+00
 2.336942e-03 -1.240493e-02 0.000000e+00
 4.994285e-02 -5.574139e-04 0.000000e+00
 6.585543e-02 -1.511803e-01 0.000000e+00
 1.006162e-01 6.115375e-03 0.000000e+00
 6.344200e-02 -1.010363e-02 0.000000e+00
 3.860113e-03 -1.560094e-02 0.000000e+00
 -8.296415e-04 -1.702812e-01 0.000000e+00
 2.125465e-02 -1.769000e-01 0.000000e+00
 5.285010e-03 -4.213289e-02 0.000000e+00
 3.944614e-02 -1.245283e-01 0.000000e+00
 -2.094251e-03 1.323958e-02 0.000000e+00
 7.740418e-02 4.564617e-03 0.000000e+00
 1.890493e-01 -3.062303e-02 0.000000e+00
 1.120047e-01 -9.237387e-02 0.000000e+00
 1.016047e-02 -1.430868e-01 0.000000e+00
 4.578513e-03 -1.791169e-01 0.000000e+00
 1.788146e-01 2.700340e-02 0.000000e+00
 1.800677e-01 2.418963e-02 0.000000e+00
 2.841696e-02 6.753748e-03 0.000000e+00
 -1.104658e-02 1.606820e-02 0.000000e+00
 5.161538e-02 -6.237782e-02 0.000000e+00
 1.863801e-03 -3.606541e-02 0.000000e+00
 -1.834474e-02 4.220014e-03 0.000000e+00
 -1.038870e-03 -6.618603e-02 0.000000e+00
 3.861618e-04 -9.308742e-03 0.000000e+00
 6.323358e-03 -6.357925e-03 0.000000e+00
 8.753931e-04 -1.165328e-02 0.000000e+00
 5.335016e-03 -1.157878e-01 0.000000e+00
 1.423678e-01 1.949545e-02 0.000000e+00
 -9.772455e-03 -1.000376e-01 0.000000e+00
 6.627678e-03 -1.132680e-02 0.000000e+00
 4.234865e-03 -1.172293e-01 0.000000e+00
 4.520701e-02 -1.733672e-01 0.000000e+00
 2.599002e-02 -6.521897e-02 0.000000e+00
 3.840531e-02 -8.471230e-02 0.000000e+00
 -6.832057e-02 8.536647e-03 0.000000e+00
 1.440443e-01 -3.543948e-02 0.000000e+00
 1.202342e-01 3.104551e-02 0.000000e+00
 1.900441e-01 -2.030265e-03 0.000000e+00
 1.072065e-01 -1.338137e-01 0.000000e+00
 1.948640e-01 1.552805e-02 0.000000e+00
 -1.073465e-03 2.401998e-02 0.000000e+00
 -6.737621e-02 8.923218e-03 0.000000e+00
 1.269466e-02 -1.199529e-01 0.000000e+00
 5.482097e-02 7.356723e-03 0.000000e+00
 1.084902e-02 -1.434629e-01 0.000000e+00
 1.734376e-02 -8.056756e-02 0.000000e+00
 2.451072e-04 1.885761e-02 0.000000e+00
 -1.890072e-02 9.250741e-03 0.000000e+00
 -2.313103e-04 6.636171e-03 0.000000e+00
 -1.407032e-04 2.696145e-02 0.000000e+00
 9.419473e-05 2.370835e-02 0.000000e+00
 2.433219e-03 -1.447181e-01 0.000000e+00
 6.264737e-03 -1.624923e-01 0.000000e+00
 1.342167e-01 1.745500e-02 0.000000e+00
 -1.934554e-05 2.565333e-02 0.000000e+00
 4.971947e-03 -1.557984e-01 0.000000e+00
 2.702210e-02 -8.768890e-03 0.000000e+00
 -4.474493e-03 -1.178971e-01 0.000000e+00
 2.143053e-02 -1.049353e-01 0.000000e+00
 7.151313e-02 -1.562416e-01 0.000000e+00
 3.900632e-02 7.428989e-03 0.000000e+00
 1.456881e-01 -9.434896e-02 0.000000e+00
 1.915323e-01 2.531144e-02 0.000000e+00
 -5.285347e-02 3.730620e-03 0.000000e+00
 1.671464e-01 -6.578745e-02 0.000000e+00
 -1.959668e-02 2.344862e-03 0.000000e+00
 -2.191265e-02 -4.618158e-04 0.000000e+00
 0.000000e+00 0.000000e+00 0.000000e+00
 -9.070216e-02 2.375919e-03 0.000000e+00
 -7.768058e-02 4.683641e-03 0.000000e+00
 0.000000e+00 0.000000e+00 0.000000e+00
 -3.675291e-03 9.500832e-03 0.000000e+00
 -2.704304e-03 2.694725e-03 0.000000e+00
 0.000000e+00 0.000000e+00 0.000000e+00
 4.204587e-03 -3.864341e-02 0.000000e+00
 -3.454858e-02 -1.378268e-02 0.000000e+00
 -1.906003e-03 2.166958e-02 0.000000e+00
 -8.861037e-03 1.657756e-02 0.000000e+00
 0.000000e+00 0.000000e+00 0.000000e+00
 1.294409e-02 -1.198713e-02 0.000000e+00
 8.279918e-03 2.360029e-02 0.000000e+00
 1.257170e-02 6.870671e-03 0.000000e+00
 4.366014e-04 2.454481e-02 0.000000e+00
 0.000000e+00 0.000000e+00 0.000000e+00
 6.321280e-03 4.952951e-03 0.000000e+00
 1.690121e-03 2.664033e-02 0.000000e+00
 -1.559424e-02 8.212903e-03 0.000000e+00
 -1.613695e-02 3.302555e-03 0.000000e+00
 -9.396004e-03 3.500490e-03 0.000000e+00
 4.157673e-04 2.843945e-02 0.000000e+00
 1.037882e-03 2.659307e-02 0.000000e+00
 0.000000e+00 0.000000e+00 0.000000e+00
 -1.937870e-02 1.382178e-03 0.000000e+00
 0.000000e+00 0.000000e+00 0.000000e+00
 0.000000e+00 0.000000e+00 0.000000e+00
 5.304402e-03 -9.850418e-03 0.000000e+00
 -9.986069e-03 -1.265945e-03 0.000000e+00
 -1.131618e-02 -2.992557e-03 0.000000e+00
 9.580290e-04 4.817540e-03 0.000000e+00
 -1.100738e-05 3.188330e-02 0.000000e+00
 -1.382880e-04 3.197984e-02 0.000000e+00
 0.000000e+00 0.000000e+00 0.000000e+00
 -1.328572e-02 1.082651e-02 0.000000e+00
 -9.596689e-03 1.538483e-02 0.000000e+00
 -1.753259e-02 -1.279385e-03 0.000000e+00
 0.000000e+00 0.000000e+00 0.000000e+00
 -4.146030e-03 -1.472393e-03 0.000000e+00
 0.000000e+00 0.000000e+00 0.000000e+00
 1.752822e-02 -1.643020e-03 0.000000e+00
 1.156743e-02 -2.795146e-03 0.000000e+00
 0.000000e+00 0.000000e+00 0.000000e+00
 1.190074e-01 -2.854825e-02 0.000000e+00
 7.252970e-02 -2.125032e-02 0.000000e+00
 1.132116e-01 -4.662566e-02 0.000000e+00
 9.188158e-03 7.778658e-04 0.000000e+00
 9.136403e-03 2.061563e-06 0.000000e+00
 0.000000e+00 0.000000e+00 0.000000e+00
 7.612952e-02 1.960496e-03 0.000000e+00
 2.745294e-02 2.256797e-03 0.000000e+00
 -2.939041e-02 5.620069e-03 0.000000e+00
 -4.674697e-02 1.872927e-03 0.000000e+00
 -3.688073e-02 -8.386859e-04 0.000000e+00
 3.704884e-04 9.773646e-03 0.000000e+00
 -2.049534e-04 3.138841e-02 0.000000e+00
 -1.406822e-04 3.080195e-02 0.000000e+00
 -2.050658e-04 3.124208e-02 0.000000e+00
 0.000000e+00 0.000000e+00 0.000000e+00
 5.598279e-02 -1.464584e-01 0.000000e+00
 7.482342e-02 -1.401187e-01 0.000000e+00
 5.531592e-02 -1.270439e-01 0.000000e+00
 -1.871316e-03 2.531114e-02 0.000000e+00
 -1.323873e-02 2.365607e-02 0.000000e+00
 0.000000e+00 0.000000e+00 0.000000e+00
 8.589881e-04 -2.061101e-02 0.000000e+00
 -6.702760e-04 2.837086e-02 0.000000e+00
 1.026306e-04 -6.449449e-04 0.000000e+00
 -2.954110e-04 2.966356e-02 0.000000e+00
 -3.683276e-04 2.808145e-02 0.000000e+00
 -3.728069e-04 2.971839e-02 0.000000e+00
 0.000000e+00 0.000000e+00 0.000000e+00
 9.462477e-03 -1.333654e-01 0.000000e+00
 1.239035e-02 -8.104554e-02 0.000000e+00
 1.393112e-02 -1.024901e-01 0.000000e+00
 -4.061127e-02 6.177001e-03 0.000000e+00
 -4.126813e-02 9.133593e-04 0.000000e+00
 -5.361380e-03 1.172544e-02 0.000000e+00
 -3.839572e-02 4.762487e-03 0.000000e+00
 -2.260746e-02 9.657357e-03 0.000000e+00
 7.877892e-02 7.387285e-03 0.000000e+00
 3.260446e-03 2.734119e-03 0.000000e+00
 2.383408e-02 3.506767e-03 0.000000e+00
 -4.249013e-02 1.270408e-02 0.000000e+00
 -6.252527e-02 3.006439e-03 0.000000e+00
 -6.036804e-02 5.435716e-03 0.000000e+00
 4.715640e-02 7.605586e-03 0.000000e+00
 -1.838884e-05 2.511650e-03 0.000000e+00
 0.000000e+00 0.000000e+00 0.000000e+00
 -6.999294e-02 3.028753e-03 0.000000e+00
 0.000000e+00 0.000000e+00 0.000000e+00
 -2.945502e-04 3.167948e-02 0.000000e+00
 -2.338181e-04 3.157458e-02 0.000000e+00
 0.000000e+00 0.000000e+00 0.000000e+00
 1.824506e-03 -5.436773e-03 0.000000e+00
 1.648529e-03 -1.014073e-02 0.000000e+00
 4.733735e-03 -4.913257e-02 0.000000e+00
 -1.583100e-03 2.244433e-02 0.000000e+00
 -7.272760e-04 2.566188e-02 0.000000e+00
 0.000000e+00 0.000000e+00 0.000000e+00
 9.961007e-04 7.801639e-03 0.000000e+00
 -1.088404e-03 3.156616e-02 0.000000e+00
 -7.674502e-04 3.018755e-02 0.000000e+00
 1.743214e-01 2.006972e-02 0.000000e+00
 1.761101e-01 1.877080e-02 0.000000e+00
 1.546199e-01 1.324145e-02 0.000000e+00
 -8.761628e-02 3.214816e-03 0.000000e+00
 -8.084628e-02 3.836314e-03 0.000000e+00
 0.000000e+00 0.000000e+00 0.000000e+00
 -1.384887e-03 3.043503e-02 0.000000e+00
 0.000000e+00 0.000000e+00 0.000000e+00
 -2.769866e-03 2.761644e-02 0.000000e+00
 -2.036439e-03 2.958700e-02 0.000000e+00
 0.000000e+00 0.000000e+00 0.000000e+00
 -3.355772e-03 -1.598036e-01 0.000000e+00
 3.197728e-03 -1.632681e-01 0.000000e+00
 1.644248e-03 -1.619230e-01 0.000000e+00
 -1.342604e-02 -7.618317e-02 0.000000e+00
 -9.380242e-03 -1.300655e-01 0.000000e+00
 -1.224187e-02 -1.115224e-01 0.000000e+00
 3.437630e-02 6.823392e-04 0.000000e+00
 -6.498352e-03 -2.678638e-03 0.000000e+00
 -1.512091e-02 2.230402e-03 0.000000e+00
 -1.014831e-02 2.522539e-03 0.000000e+00
 0.000000e+00 0.000000e+00 0.000000e+00
 1.989483e-01 2.157804e-02 0.000000e+00
 2.002964e-01 1.003225e-02 0.000000e+00
 1.827854e-01 1.713758e-02 0.000000e+00
 1.681751e-01 2.330369e-02 0.000000e+00
 1.736923e-01 2.032608e-02 0.000000e+00
 -1.041784e-02 -5.181531e-02 0.000000e+00
 -1.362923e-02 -3.014757e-02 0.000000e+00
 -1.377432e-02 1.103434e-03 0.000000e+00
 8.171953e-02 -8.066898e-02 0.000000e+00
 6.515446e-02 -9.098009e-02 0.000000e+00
 9.277830e-02 -1.093344e-01 0.000000e+00
 3.900187e-02 -6.863441e-02 0.000000e+00
 4.824810e-02 -9.666763e-02 0.000000e+00
 1.593912e-02 -1.653460e-01 0.000000e+00
 1.092477e-02 -1.666224e-01 0.000000e+00
 1.468896e-02 -1.783033e-01 0.000000e+00
 7.759016e-02 7.461718e-03 0.000000e+00
 9.885514e-02 5.968401e-03 0.000000e+00
 1.074491e-01 1.116910e-02 0.000000e+00
 1.643167e-01 1.001491e-02 0.000000e+00
 1.439392e-01 2.479260e-03 0.000000e+00
 7.318233e-02 2.110397e-02 0.000000e+00
 1.348305e-01 2.483324e-02 0.000000e+00
 9.838180e-02 2.279273e-02 0.000000e+00
 5.385754e-03 -1.736028e-01 0.000000e+00
 8.502050e-03 -1.784479e-01 0.000000e+00
 7.118937e-03 -1.804772e-01 0.000000e+00
 -7.516016e-03 -6.038607e-02 0.000000e+00
 -5.420691e-03 -9.158072e-03 0.000000e+00
 1.621060e-01 -5.265305e-02 0.000000e+00
 1.478796e-01 -7.725662e-02 0.000000e+00
 1.308030e-01 -5.897183e-02 0.000000e+00
 -4.111235e-03 1.696436e-02 0.000000e+00
 -3.190105e-03 2.283348e-02 0.000000e+00
 0.000000e+00 0.000000e+00 0.000000e+00
 1.249667e-01 6.686938e-03 0.000000e+00
 7.052342e-03 -2.467356e-02 0.000000e+00
 1.572163e-02 -3.811321e-02 0.000000e+00
 2.073548e-04 -5.183026e-03 0.000000e+00
 1.779341e-01 -3.593574e-02 0.000000e+00
 1.670998e-01 -1.507877e-02 0.000000e+00
 1.924967e-01 -1.480260e-02 0.000000e+00
 1.742812e-01 -4.461223e-02 0.000000e+00
 1.790290e-01 -2.161368e-02 0.000000e+00
 1.562830e-01 -3.048643e-02 0.000000e+00
 8.522798e-03 -6.666407e-02 0.000000e+00
 1.234485e-02 -2.913516e-02 0.000000e+00
 -3.582601e-03 -1.540585e-01 0.000000e+00
 -2.163264e-03 -1.426178e-01 0.000000e+00
 -1.004043e-03 -1.684056e-01 0.000000e+00
 5.305770e-03 -1.381490e-01 0.000000e+00
 6.934358e-03 -1.707864e-01 0.000000e+00
 8.084095e-03 -1.579342e-01 0.000000e+00
 4.723995e-03 -2.858567e-02 0.000000e+00
 1.219298e-02 -8.680610e-02 0.000000e+00
 1.213132e-02 -7.045652e-02 0.000000e+00
 3.123433e-02 -1.773741e-01 0.000000e+00
 3.475628e-02 -1.606981e-01 0.000000e+00
 2.347511e-02 -1.572881e-01 0.000000e+00
 2.402943e-02 -9.002870e-02 0.000000e+00
 -1.834732e-02 -1.240139e-02 0.000000e+00
 1.841859e-02 5.046616e-03 0.000000e+00
 0.000000e+00 0.000000e+00 0.000000e+00
 4.660561e-02 1.934980e-02 0.000000e+00
 8.386084e-03 1.353290e-02 0.000000e+00
 1.401916e-01 1.815432e-02 0.000000e+00
 1.825389e-01 2.607841e-02 0.000000e+00
 1.784967e-01 2.405846e-02 0.000000e+00
 9.126952e-03 -8.254359e-02 0.000000e+00
 1.693011e-02 -1.224437e-01 0.000000e+00
 4.236925e-03 -1.385646e-01 0.000000e+00
 3.939071e-03 -1.190392e-01 0.000000e+00
 3.371402e-03 -9.474689e-02 0.000000e+00
 1.718936e-02 -1.752052e-01 0.000000e+00
 1.482072e-02 -1.468409e-01 0.000000e+00
 2.387532e-02 -1.761055e-01 0.000000e+00
 1.594210e-01 2.753714e-02 0.000000e+00
 1.846079e-01 2.812278e-02 0.000000e+00
 1.625716e-01 3.090306e-02 0.000000e+00
 1.604462e-01 1.045368e-02 0.000000e+00
 1.732618e-01 1.711950e-02 0.000000e+00
 1.197484e-01 1.101246e-02 0.000000e+00
 1.524719e-01 3.104108e-02 0.000000e+00
 1.677816e-01 3.270477e-02 0.000000e+00
 1.867340e-01 3.143955e-02 0.000000e+00
 1.314926e-01 -9.660349e-02 0.000000e+00
 1.537937e-01 -7.354887e-02 0.000000e+00
 1.341861e-01 -7.427129e-02 0.000000e+00
 7.178943e-02 -2.964362e-02 0.000000e+00
 6.236009e-02 -4.972323e-02 0.000000e+00
 2.962785e-02 -3.328290e-02 0.000000e+00
 6.499149e-02 -5.089552e-02 0.000000e+00
 3.237921e-02 -2.338443e-02 0.000000e+00
 1.608745e-02 -7.630389e-03 0.000000e+00
 -2.650285e-04 -1.803519e-03 0.000000e+00
 3.429689e-02 -9.509107e-02 0.000000e+00
 1.741203e-02 -5.715537e-02 0.000000e+00
 2.352973e-02 -8.632487e-02 0.000000e+00
 1.930925e-01 -1.467919e-02 0.000000e+00
 1.726039e-01 -8.521980e-03 0.000000e+00
 1.704888e-03 -1.751212e-01 0.000000e+00
 1.852750e-03 -1.773114e-01 0.000000e+00
 3.369422e-04 -1.095879e-01 0.000000e+00
 1.199265e-03 -1.541326e-01 0.000000e+00
 -8.513204e-04 -1.235682e-01 0.000000e+00
 2.818834e-03 -6.542237e-02 0.000000e+00
 4.927285e-03 -8.673187e-02 0.000000e+00
 1.992931e-03 -3.361690e-02 0.000000e+00
 4.476369e-03 -1.627439e-01 0.000000e+00
 -1.294289e-02 -3.811384e-03 0.000000e+00
 -8.982692e-03 -1.679792e-03 0.000000e+00
 5.431561e-03 -1.751807e-02 0.000000e+00
 -4.928454e-03 1.901176e-02 0.000000e+00
 -6.723238e-03 5.658577e-03 0.000000e+00
 3.612339e-03 -6.661956e-02 0.000000e+00
 2.159734e-03 -4.032159e-02 0.000000e+00
 4.318882e-03 -1.519385e-01 0.000000e+00
 5.575032e-03 -1.180562e-01 0.000000e+00
 4.979315e-03 -1.511613e-01 0.000000e+00
 1.937727e-01 7.500704e-03 0.000000e+00
 1.573030e-01 4.647974e-03 0.000000e+00
 5.970715e-02 -4.681401e-03 0.000000e+00
 1.078236e-01 -1.287271e-02 0.000000e+00
 1.042932e-01 -4.743038e-03 0.000000e+00
 7.644487e-03 -9.614758e-02 0.000000e+00
 1.162508e-02 -1.035146e-01 0.000000e+00
 7.783013e-02 -8.910594e-02 0.000000e+00
 -5.966041e-03 2.535133e-03 0.000000e+00
 0.000000e+00 0.000000e+00 0.000000e+00
 1.310820e-01 1.152454e-04 0.000000e+00
 2.762955e-02 -1.058297e-01 0.000000e+00
 2.007460e-02 -1.024740e-01 0.000000e+00
 2.978537e-02 -1.265354e-01 0.000000e+00
 -1.355140e-03 1.846464e-02 0.000000e+00
 2.374856e-03 -5.062635e-03 0.000000e+00
 2.722052e-03 -9.333459e-03 0.000000e+00
 -2.626920e-03 -9.400859e-02 0.000000e+00
 -5.093005e-03 -6.895396e-02 0.000000e+00
 -2.604100e-03 -3.967694e-02 0.000000e+00
 8.901312e-02 -1.483784e-01 0.000000e+00
 7.245523e-02 -1.593653e-01 0.000000e+00
 8.679626e-02 -1.451139e-01 0.000000e+00
 7.678895e-03 -1.309771e-01 0.000000e+00
 7.426911e-03 -1.037183e-01 0.000000e+00
 -6.858318e-04 3.132072e-02 0.000000e+00
 -4.133158e-04 3.123793e-02 0.000000e+00
 0.000000e+00 0.000000e+00 0.000000e+00
 1.190281e-02 -1.324672e-01 0.000000e+00
 1.791252e-02 -1.571292e-01 0.000000e+00
 5.802477e-02 -1.671761e-01 0.000000e+00
 4.720769e-02 -1.574043e-01 0.000000e+00
 9.255213e-03 -4.912606e-02 0.000000e+00
 1.379809e-02 -6.050758e-02 0.000000e+00
 6.642202e-03 -3.046442e-02 0.000000e+00
 1.725240e-01 2.336790e-02 0.000000e+00
 1.933512e-01 2.922052e-02 0.000000e+00
 -1.674845e-03 9.352615e-03 0.000000e+00
 -1.322789e-02 1.550864e-02 0.000000e+00
 6.211419e-02 1.662559e-02 0.000000e+00
 1.573531e-01 -8.095525e-02 0.000000e+00
 1.661578e-01 -6.199563e-02 0.000000e+00
 1.143656e-01 -1.317843e-02 0.000000e+00
 2.550349e-02 -6.928322e-03 0.000000e+00
 9.816223e-02 -6.222928e-02 0.000000e+00
 8.743921e-02 -1.241324e-01 0.000000e+00
 5.880800e-02 -1.230833e-01 0.000000e+00
 0.000000e+00 0.000000e+00 0.000000e+00
 1.114813e-02 -1.750890e-01 0.000000e+00
 8.307401e-03 -1.534763e-01 0.000000e+00
 4.460820e-03 -1.339348e-01 0.000000e+00
 5.744261e-03 -1.196270e-01 0.000000e+00
 3.578027e-03 -1.786490e-01 0.000000e+00
 2.435638e-03 -1.729011e-01 0.000000e+00
 5.589916e-02 2.538788e-02 0.000000e+00
 8.807790e-02 2.804420e-02 0.000000e+00
 1.653608e-02 2.174370e-02 0.000000e+00
 1.597439e-01 2.305461e-02 0.000000e+00
 9.463559e-02 2.197459e-02 0.000000e+00
 1.273176e-01 2.635507e-02 0.000000e+00
 8.819086e-02 1.301167e-02 0.000000e+00
 8.794093e-02 1.112835e-02 0.000000e+00
 -6.974930e-02 9.544328e-03 0.000000e+00
 -1.876700e-02 1.723083e-02 0.000000e+00
 1.158866e-01 2.949879e-02 0.000000e+00
 2.403209e-02 -4.079400e-02 0.000000e+00
 5.692300e-03 -6.744588e-02 0.000000e+00
 2.279300e-02 -1.300869e-01 0.000000e+00
 -3.328300e-04 -2.813557e-02 0.000000e+00
 6.999348e-04 -4.167418e-02 0.000000e+00
 6.405228e-04 -7.944858e-02 0.000000e+00
 -8.032460e-04 1.400292e-02 0.000000e+00
 4.449011e-03 -8.215049e-02 0.000000e+00
 1.681920e-03 -5.161572e-02 0.000000e+00
 3.823458e-02 -1.811934e-02 0.000000e+00
 4.498617e-02 -9.982446e-03 0.000000e+00
 5.178923e-02 -1.998918e-02 0.000000e+00
 2.229877e-05 2.467222e-02 0.000000e+00
 1.287040e-03 -9.194456e-03 0.000000e+00
 4.463322e-04 4.777883e-03 0.000000e+00
 1.188114e-03 -2.132828e-02 0.000000e+00
 1.594410e-03 -4.006308e-02 0.000000e+00
 5.160985e-03 -1.759604e-01 0.000000e+00
 4.287477e-03 -1.660557e-01 0.000000e+00
 3.486042e-03 -9.403363e-02 0.000000e+00
 1.938170e-01 2.148130e-02 0.000000e+00
 1.714443e-01 2.071076e-02 0.000000e+00
 9.404089e-02 1.361024e-02 0.000000e+00
 8.926251e-02 1.210659e-02 0.000000e+00
 1.397825e-01 1.831464e-02 0.000000e+00
 -7.046113e-03 -1.090720e-01 0.000000e+00
 -5.631326e-03 -1.467150e-01 0.000000e+00
 3.893722e-03 -1.118215e-02 0.000000e+00
 5.706773e-03 -6.903365e-02 0.000000e+00
 3.450147e-02 -1.700087e-01 0.000000e+00
 4.099686e-02 -1.579699e-01 0.000000e+00
 4.410951e-02 -1.354079e-01 0.000000e+00
 5.505001e-02 -1.658422e-01 0.000000e+00
 -5.330436e-02 2.314095e-03 0.000000e+00
 1.801607e-01 -4.739510e-02 0.000000e+00
 5.429091e-02 2.274587e-02 0.000000e+00
 1.994662e-01 -1.397256e-03 0.000000e+00
 1.164358e-01 -1.167435e-01 0.000000e+00
 9.417002e-02 -1.342412e-01 0.000000e+00