<?xml version="1.0"?>
<VTKFile type="UnstructuredGrid"  version="0.1"  >
<UnstructuredGrid>
<Piece  NumberOfPoints="505" NumberOfCells="928">
<Points>
<DataArray  type="Float32"  NumberOfComponents="3"  format="ascii">
0 0 0
1 0 0
0 1 0
1 0.5 0
0.5 0.5 0
0.5 1 0
0.1 0 0
0.2 0 0
0.3 0 0
0.4 0 0
0.5 0 0
0.6 0 0
0.7 0 0
0.8 0 0
0.9 0 0
0 0.9 0
0 0.8 0
0 0.7 0
0 0.6 0
0 0.5 0
0 0.4 0
0 0.3 0
0 0.2 0
0 0.1 0
0.9 0.5 0
0.8 0.5 0
0.7 0.5 0
0.6 0.5 0
0.5 0.6 0
0.5 0.7 0
0.5 0.8 0
0.5 0.9 0
0.1 1 0
0.2 1 0
0.3 1 0
0.4 1 0
1 0.1 0
1 0.2 0
1 0.3 0
1 0.4 0
0.300178 0.296564 0
0.247566 0.664879 0
0.639694 0.259804 0
0.06564 0.06472 0
0.04439 0.954144 0
0.932418 0.064715 0
0.951013 0.456419 0
0.437622 0.939659 0
0.195334 0.464441 0
0.483382 0.329596 0
0.834786 0.236295 0
0.307228 0.81139 0
0.178229 0.173372 0
0.366998 0.134199 0
0.547485 0.14214 0
0.124832 0.74927 0
0.160163 0.896658 0
0.342556 0.535243 0
0.147651 0.342018 0
0.729803 0.127878 0
0.725981 0.357775 0
0.121369 0.600441 0
0.372954 0.70814 0
0.908503 0.151525 0
0.89851 0.333305 0
0.556275 0.400898 0
0.259184 0.092178 0
0.46329 0.194362 0
0.423773 0.869712 0
0.22823 0.818162 0
0.081292 0.144905 0
0.082979 0.831935 0
0.549999 0.065419 0
0.371537 0.407588 0
0.642628 0.097865 0
0.459835 0.086595 0
0.108565 0.418567 0
0.273082 0.902112 0
0.256598 0.556659 0
0.11951 0.509541 0
0.234147 0.370527 0
0.097453 0.253261 0
0.638438 0.342389 0
0.554656 0.224779 0
0.373432 0.237603 0
0.339663 0.62579 0
0.27079 0.747786 0
0.733958 0.266592 0
0.928527 0.244458 0
0.853116 0.071497 0
0.818426 0.404817 0
0.280194 0.200604 0
0.417859 0.565185 0
0.147241 0.079056 0
0.389149 0.789957 0
0.42808 0.654642 0
0.343469 0.059202 0
0.086765 0.684153 0
0.162043 0.675011 0
0.809252 0.14201 0
0.364337 0.928607 0
0.077532 0.916553 0
0.159064 0.807906 0
0.302124 0.454032 0
0.205909 0.272176 0
0.449664 0.407415 0
0.66041 0.423241 0
0.562201 0.303789 0
0.802658 0.320211 0
0.614551 0.182931 0
0.390944 0.331035 0
0.687136 0.18846 0
0.070577 0.342498 0
0.741087 0.437361 0
0.176989 0.547528 0
0.710251 0.07409 0
0.192845 0.608574 0
0.171114 0.398277 0
0.058959 0.753084 0
0.904 0.425508 0
0.438039 0.730373 0
0.057223 0.475897 0
0.058502 0.552106 0
0.330493 0.750997 0
0.312295 0.699131 0
0.684882 0.307111 0
0.053312 0.627311 0
0.198798 0.743695 0
0.392326 0.069953 0
0.351519 0.860283 0
0.397134 0.477694 0
0.319385 0.371198 0
0.767351 0.069505 0
0.441954 0.271171 0
0.759504 0.192785 0
0.855661 0.457701 0
0.500847 0.264652 0
0.916209 0.0323575 0
0.966209 0.0323575 0
0.95 0 0
0.578137 0.450449 0
0.528137 0.450449 0
0.55 0.5 0
0.03282 0.08236 0
0.03282 0.03236 0
0 0.05 0
0.502969 0.404157 0
0.474832 0.453708 0
0.468811 0.91983 0
0.468811 0.96983 0
0.5 0.95 0
0.072195 0.977072 0
0.022195 0.977072 0
0.05 1 0
0.022195 0.927072 0
0 0.95 0
0.060961 0.935348 0
0.038766 0.908276 0
0.106441 0.071888 0
0.123621 0.039528 0
0.08282 0.03236 0
0.0414895 0.815967 0
0.0414895 0.865968 0
0 0.85 0
0.173621 0.039528 0
0.15 0 0
0.05 0 0
0.301327 0.07569 0
0.321735 0.029601 0
0.279592 0.046089 0
0.070969 0.792509 0
0.0294795 0.776542 0
0.0294795 0.726542 0
0 0.75 0
0.114267 0.111981 0
0.073466 0.104813 0
0.229592 0.046089 0
0.25 0 0
0.371735 0.029601 0
0.35 0 0
0.479917 0.0432975 0
0.429918 0.0432975 0
0.45 0 0
0.461562 0.140479 0
0.413416 0.110397 0
0.415144 0.16428 0
0.574999 0.0327095 0
0.525 0.0327095 0
0.55 0 0
0.596313 0.081642 0
0.621314 0.0489325 0
0.927507 0.440964 0
0.902 0.462754 0
0.925507 0.47821 0
0.0700385 0.655732 0
0.026656 0.663655 0
0.0433825 0.692076 0
0.026656 0.613655 0
0 0.65 0
0.276766 0.370862 0
0.309781 0.333881 0
0.267162 0.333545 0
0.458929 0.582593 0
0.458929 0.532593 0
0.5 0.55 0
0.422969 0.609913 0
0.46404 0.627321 0
0.43306 0.692508 0
0.46902 0.715186 0
0.46404 0.677321 0
0.46902 0.765186 0
0.5 0.75 0
0.180082 0.948329 0
0.130082 0.948329 0
0.15 1 0
0.87983 0.441605 0
0.87783 0.478851 0
0.975507 0.42821 0
0.975507 0.47821 0
1 0.45 0
0.676439 0.0859775 0
0.705125 0.037045 0
0.671314 0.0489325 0
0.779756 0.421089 0
0.770544 0.46868 0
0.809213 0.452408 0
0.738801 0.0717975 0
0.733675 0.0347525 0
0.95 0.5 0
0.720544 0.46868 0
0.75 0.5 0
0.029251 0.526053 0
0.029251 0.576053 0
0 0.55 0
0.089006 0.530824 0
0.0899355 0.576273 0
0.12044 0.554991 0
0.461886 0.884856 0
0.461886 0.834856 0
0.5 0.85 0
0.089571 0.380533 0
0.0352885 0.371249 0
0.0542825 0.409284 0
0.918515 0.197991 0
0.964263 0.222229 0
0.954252 0.175762 0
0.630205 0.46162 0
0.680205 0.46162 0
0.65 0.5 0
0.0352885 0.321249 0
0 0.35 0
0.0487265 0.226631 0
0.0487265 0.276631 0
0 0.25 0
0.286541 0.951056 0
0.236541 0.951056 0
0.25 1 0
0.382169 0.964303 0
0.332168 0.964303 0
0.35 1 0
0.966209 0.0823575 0
1 0.05 0
0.876558 0.0357485 0
0.826558 0.0357485 0
0.85 0 0
0.710547 0.227526 0
0.663415 0.224132 0
0.686826 0.263198 0
0.964263 0.272229 0
1 0.25 0
0.40098 0.934133 0
0.418811 0.96983 0
0.45 1 0
0.326813 0.219104 0
0.290186 0.248584 0
0.336805 0.267084 0
0.243052 0.23639 0
0.253043 0.28437 0
0.224721 0.582616 0
0.220205 0.636726 0
0.252082 0.610769 0
0.92046 0.10812 0
0.954252 0.125762 0
0.66166 0.32475 0
0.662288 0.283458 0
0.639066 0.301096 0
0.949255 0.366653 0
0.949255 0.316653 0
1 0.35 0
0.291542 0.723459 0
0.27993 0.682005 0
0.259178 0.706333 0
0.394055 0.89916 0
0.430698 0.904686 0
0.531524 0.28422 0
0.492115 0.297124 0
0.522791 0.316692 0
0.040646 0.122453 0
0.040646 0.172453 0
0 0.15 0
1 0.15 0
0.151681 0.262718 0
0.192069 0.222774 0
0.137841 0.213317 0
0.558428 0.264284 0
0.600947 0.281797 0
0.597175 0.242291 0
0.508973 0.20957 0
0.551071 0.183459 0
0.505387 0.168251 0
0.118847 0.906605 0
0.088766 0.958276 0
0.3123 0.881198 0
0.329373 0.835836 0
0.290155 0.856751 0
0.18042 0.709353 0
0.223182 0.704287 0
0.204805 0.669945 0
0.114037 0.464054 0
0.157422 0.486991 0
0.15195 0.441504 0
0.279361 0.505346 0
0.248729 0.459236 0
0.225966 0.51055 0
0.423399 0.442555 0
0.448567 0.488847 0
0.892767 0.068106 0
0.65 0 0
0.901255 0.379406 0
0.952 0.412754 0
0.858877 0.146767 0
0.822019 0.189153 0
0.871644 0.19391 0
0.14825 0.528535 0
0.186162 0.505985 0
0.178931 0.775801 0
0.161815 0.746482 0
0.141948 0.778588 0
0.29813 0.591225 0
0.34111 0.580516 0
0.299577 0.545951 0
0.913519 0.288882 0
0.881657 0.240376 0
0.866648 0.2848 0
0.664882 0.143162 0
0.708469 0.158169 0
0.686215 0.112871 0
0.768308 0.293401 0
0.818722 0.278253 0
0.784372 0.251443 0
0.407693 0.254387 0
0.452622 0.232766 0
0.418361 0.215983 0
0.559238 0.352343 0
0.519829 0.365247 0
0.269689 0.146391 0
0.323596 0.167402 0
0.313091 0.113188 0
0.367897 0.0645775 0
0.396163 0.0349765 0
0.220028 0.321352 0
0.17678 0.307097 0
0.190899 0.356272 0
0.584604 0.203855 0
0.581018 0.162535 0
0.250656 0.860137 0
0.267729 0.814776 0
0.359821 0.770477 0
0.31886 0.781193 0
0.348189 0.800674 0
0.124404 0.679582 0
0.141706 0.637726 0
0.104067 0.642297 0
0.216622 0.899385 0
0.203213 0.085617 0
0.162735 0.126214 0
0.218707 0.132775 0
0.0893725 0.199083 0
0.129761 0.159139 0
0.121022 0.819921 0
0.103905 0.790602 0
0.193647 0.813034 0
0.159614 0.852282 0
0.194196 0.85741 0
0.650843 0.185696 0
0.628589 0.140398 0
0.504917 0.076007 0
0.50366 0.114367 0
0.548742 0.103779 0
0.378761 0.595487 0
0.380208 0.550214 0
0.466523 0.368506 0
0.783675 0.0347525 0
0.75 0 0
0.595056 0.120002 0
0.20263 0.384402 0
0.183224 0.431359 0
0.214741 0.417484 0
0.084015 0.29788 0
0.109114 0.342258 0
0.122552 0.29764 0
0.370334 0.82512 0
0.387646 0.864998 0
0.406461 0.829835 0
0.355164 0.351116 0
0.345461 0.389393 0
0.38124 0.369312 0
0.177444 0.641792 0
0.157107 0.604507 0
0.0286115 0.437949 0
0.0286115 0.487949 0
0 0.45 0
0.184917 0.578051 0
0.216794 0.552094 0
0.310754 0.412615 0
0.268135 0.41228 0
0.13984 0.408422 0
0.159382 0.370147 0
0.128108 0.380293 0
0.784378 0.167398 0
0.797145 0.21454 0
0.649424 0.382815 0
0.693196 0.390508 0
0.682209 0.350082 0
0.471401 0.267911 0
0.482069 0.229507 0
0.600319 0.323089 0
0.597356 0.371644 0
0.370215 0.185901 0
0.420304 0.369225 0
0.410601 0.407502 0
0.5 0.65 0
0.293615 0.645334 0
0.325979 0.66246 0
0.342624 0.703635 0
0.356309 0.666965 0
0.24951 0.782974 0
0.289009 0.779588 0
0.810542 0.362514 0
0.76432 0.338993 0
0.772204 0.381296 0
0.70942 0.286852 0
0.705431 0.332443 0
0.729969 0.312184 0
0.831184 0.106754 0
0.88081 0.111511 0
0.700748 0.430301 0
0.733534 0.397568 0
0.850584 0.326758 0
0.229212 0.186988 0
0.407496 0.52144 0
0.369845 0.506468 0
0.413594 0.760165 0
0.405497 0.719256 0
0.381051 0.749049 0
0.444574 0.794979 0
0.383872 0.640216 0
0.400517 0.681391 0
0.355233 0.0967005 0
0.42608 0.078274 0
0.379662 0.102076 0
0.055907 0.589708 0
0.0873405 0.613876 0
0.072862 0.718619 0
0.0918955 0.751177 0
0.105798 0.716711 0
0.234794 0.74574 0
0.213514 0.780928 0
0.143437 0.712141 0
0.72332 0.190623 0
0.744653 0.160332 0
0.788301 0.105758 0
0.748577 0.0986915 0
0.769527 0.134944 0
0.357928 0.894445 0
0.318709 0.915359 0
0.0802555 0.874244 0
0.121571 0.864297 0
0.32234 0.494638 0
0.349629 0.465863 0
0.384335 0.442641 0
0.336831 0.43081 0
0.608343 0.412069 0
0.527752 0.244716 0
0.858468 0.369061 0
0.627123 0.221367 0
0.382188 0.284319 0
0.345561 0.3138 0
0.437163 0.330315 0
0.746731 0.229689 0
0.149179 0.573985 0
0.720027 0.100984 0
0.810234 0.070501 0
0.861213 0.415162 0
0.827831 0.478851 0
0.85 0.5 0
0.082894 0.447232 0
0.0883665 0.492719 0
0.0578625 0.514002 0
0.300642 0.749391 0
0.351723 0.729569 0
0.321394 0.725064 0
0.416449 0.301103 0
0.462668 0.300384 0
0.837044 0.431259 0
</DataArray>
</Points>
<Cells>
<DataArray  type="UInt32"  Name="connectivity"  format="ascii">
1 138 139 
14 137 139 
45 137 138 
137 138 139 
4 141 142 
27 140 142 
65 140 141 
140 141 142 
0 144 145 
23 143 145 
43 143 144 
143 144 145 
4 141 147 
65 141 146 
105 146 147 
141 146 147 
5 149 150 
31 148 150 
47 148 149 
148 149 150 
2 152 153 
32 151 153 
44 151 152 
151 152 153 
2 152 155 
15 154 155 
44 152 154 
152 154 155 
15 154 157 
44 154 156 
101 156 157 
154 156 157 
6 159 160 
43 158 160 
93 158 159 
158 159 160 
15 162 163 
16 161 163 
71 161 162 
161 162 163 
6 159 165 
7 164 165 
93 159 164 
159 164 165 
[...]
<PointData  Vectors="u"> 
<DataArray  type="Float32"  Name="u"  NumberOfComponents="3" format="ascii">
 0.000000e+00 0.000000e+00 0.000000e+00
 8.833932e-02 -3.014495e-02 0.000000e+00
 3.244960e-02 -9.491181e-02 0.000000e+00
 7.169907e-02 2.677688e-02 0.000000e+00
 0.000000e+00 0.000000e+00 0.000000e+00
 -3.760309e-02 -1.132414e-01 0.000000e+00
 0.000000e+00 0.000000e+00 0.000000e+00
 0.000000e+00 0.000000e+00 0.000000e+00
 0.000000e+00 0.000000e+00 0.000000e+00
 0.000000e+00 0.000000e+00 0.000000e+00
 0.000000e+00 0.000000e+00 0.000000e+00
 0.000000e+00 0.000000e+00 0.000000e+00
 0.000000e+00 0.000000e+00 0.000000e+00
 0.000000e+00 0.000000e+00 0.000000e+00
 0.000000e+00 0.000000e+00 0.000000e+00
 0.000000e+00 0.000000e+00 0.000000e+00
 0.000000e+00 0.000000e+00 0.000000e+00
 0.000000e+00 0.000000e+00 0.000000e+00
 0.000000e+00 0.000000e+00 0.000000e+00
 0.000000e+00 0.000000e+00 0.000000e+00
 0.000000e+00 0.000000e+00 0.000000e+00
 0.000000e+00 0.000000e+00 0.000000e+00
 0.000000e+00 0.000000e+00 0.000000e+00
 0.000000e+00 0.000000e+00 0.000000e+00
 0.000000e+00 0.000000e+00 0.000000e+00
 0.000000e+00 0.000000e+00 0.000000e+00
 0.000000e+00 0.000000e+00 0.000000e+00
 0.000000e+00 0.000000e+00 0.000000e+00
 0.000000e+00 0.000000e+00 0.000000e+00
 0.000000e+00 0.000000e+00 0.000000e+00
 0.000000e+00 0.000000e+00 0.000000e+00
 0.000000e+00 0.000000e+00 0.000000e+00
 3.090134e-02 -2.715088e-01 0.000000e+00
 1.109299e-02 -4.002674e-01 0.000000e+00
 -6.457889e-03 -4.096362e-01 0.000000e+00
 -3.031261e-02 -2.909768e-01 0.000000e+00
 2.983472e-01 -2.089366e-02 0.000000e+00
 4.185877e-01 2.335558e-03 0.000000e+00
 4.044942e-01 1.797262e-02 0.000000e+00
 2.697566e-01 3.008752e-02 0.000000e+00
 1.958445e-01 -2.436461e-01 0.000000e+00
 3.744042e-02 -4.358920e-01 0.000000e+00
 4.583950e-01 -2.802948e-02 0.000000e+00
 1.437327e-03 -1.831698e-03 0.000000e+00
 3.500001e-02 -1.535073e-01 0.000000e+00
 2.239491e-01 -1.632969e-02 0.000000e+00
 1.345671e-01 2.651680e-02 0.000000e+00
 -3.322814e-02 -2.194357e-01 0.000000e+00
 7.543782e-02 -3.286821e-01 0.000000e+00
 3.884715e-01 -2.103485e-01 0.000000e+00
 4.487518e-01 2.087998e-02 0.000000e+00
 7.816212e-03 -4.312419e-01 0.000000e+00
 7.148833e-02 -8.785240e-02 0.000000e+00
 2.264151e-01 -7.345758e-02 0.000000e+00
 3.680693e-01 -3.767551e-02 0.000000e+00
 1.153950e-02 -3.203072e-01 0.000000e+00
 1.561575e-02 -3.771253e-01 0.000000e+00
 1.053603e-01 -4.322361e-01 0.000000e+00
 5.504129e-02 -1.932939e-01 0.000000e+00
 3.843111e-01 6.924968e-03 0.000000e+00
 3.375504e-01 2.081243e-02 0.000000e+00
 2.164408e-02 -2.840721e-01 0.000000e+00
 2.042828e-02 -3.763030e-01 0.000000e+00
 3.983153e-01 2.415367e-03 0.000000e+00
 3.813179e-01 2.567605e-02 0.000000e+00
 2.835540e-01 -8.481396e-02 0.000000e+00
 1.038633e-01 -3.960450e-02 0.000000e+00
 3.503828e-01 -1.065540e-01 0.000000e+00
 -1.002543e-02 -2.532574e-01 0.000000e+00
 1.224054e-02 -4.326133e-01 0.000000e+00
 1.274256e-02 -2.512932e-02 0.000000e+00
 8.623703e-03 -2.380022e-01 0.000000e+00
 2.259576e-01 -7.511185e-03 0.000000e+00
 2.358579e-01 -3.684571e-01 0.000000e+00
 3.238202e-01 -2.490644e-03 0.000000e+00
 2.379281e-01 -2.614575e-02 0.000000e+00
 2.938971e-02 -1.854209e-01 0.000000e+00
 1.681258e-03 -4.311038e-01 0.000000e+00
 7.499179e-02 -4.200432e-01 0.000000e+00
 2.937294e-02 -2.478777e-01 0.000000e+00
 1.223735e-01 -2.903479e-01 0.000000e+00
 2.358005e-02 -8.421071e-02 0.000000e+00
 3.813565e-01 -1.985115e-02 0.000000e+00
 4.309112e-01 -7.794514e-02 0.000000e+00
 2.738046e-01 -1.778494e-01 0.000000e+00
 5.122202e-02 -4.276109e-01 0.000000e+00
 2.027126e-02 -4.430770e-01 0.000000e+00
 4.507321e-01 1.431880e-02 0.000000e+00
 4.353461e-01 1.538609e-02 0.000000e+00
 2.463134e-01 1.460779e-03 0.000000e+00
 2.421767e-01 1.906780e-02 0.000000e+00
 1.679573e-01 -1.393647e-01 0.000000e+00
 5.698602e-02 -3.398919e-01 0.000000e+00
 2.742293e-02 -1.910005e-02 0.000000e+00
 4.472277e-03 -3.367509e-01 0.000000e+00
 1.691414e-02 -2.644458e-01 0.000000e+00
 1.208799e-01 -1.829803e-02 0.000000e+00
 8.296477e-03 -2.276686e-01 0.000000e+00
 2.291537e-02 -3.677014e-01 0.000000e+00
 3.995750e-01 1.047789e-02 0.000000e+00
 -1.689210e-02 -3.634062e-01 0.000000e+00
 2.380570e-02 -2.331890e-01 0.000000e+00
 1.330039e-02 -3.781400e-01 0.000000e+00
 1.481834e-01 -3.938494e-01 0.000000e+00
 1.020925e-01 -1.847652e-01 0.000000e+00
 3.000406e-01 -3.095985e-01 0.000000e+00
 1.649705e-01 8.096259e-03 0.000000e+00
 4.338669e-01 -1.019248e-01 0.000000e+00
 3.977747e-01 2.764469e-02 0.000000e+00
 4.325948e-01 -2.800217e-02 0.000000e+00
 2.952444e-01 -2.814679e-01 0.000000e+00
 4.477393e-01 -1.844557e-03 0.000000e+00
 1.281119e-02 -8.916479e-02 0.000000e+00
 1.364374e-01 1.199484e-02 0.000000e+00
 4.865669e-02 -3.503841e-01 0.000000e+00
 2.643952e-01 3.682803e-03 0.000000e+00
 4.104090e-02 -3.881823e-01 0.000000e+00
 6.891351e-02 -2.590527e-01 0.000000e+00
 3.291804e-03 -1.626694e-01 0.000000e+00
 2.090952e-01 1.826017e-02 0.000000e+00
 5.916801e-03 -2.145788e-01 0.000000e+00
 7.980947e-03 -1.079310e-01 0.000000e+00
 7.022824e-03 -1.300814e-01 0.000000e+00
 1.656513e-02 -4.212753e-01 0.000000e+00
 2.957391e-02 -4.362207e-01 0.000000e+00
 4.240550e-01 1.664532e-03 0.000000e+00
 4.443290e-03 -1.311227e-01 0.000000e+00
 1.919330e-02 -4.147167e-01 0.000000e+00
 1.680444e-01 -2.262654e-02 0.000000e+00
 -4.489128e-03 -3.903068e-01 0.000000e+00
 1.727574e-01 -4.039117e-01 0.000000e+00
 2.032372e-01 -3.276163e-01 0.000000e+00
 2.468416e-01 4.511841e-03 0.000000e+00
 3.546712e-01 -1.911407e-01 0.000000e+00
 4.487898e-01 1.297485e-02 0.000000e+00
 1.079595e-01 6.013585e-03 0.000000e+00
 4.075701e-01 -1.440314e-01 0.000000e+00
 1.204141e-01 -9.447988e-03 0.000000e+00
 1.280959e-01 -2.779822e-02 0.000000e+00
 0.000000e+00 0.000000e+00 0.000000e+00
 1.023824e-01 -1.488020e-02 0.000000e+00
 1.656115e-01 -9.252546e-02 0.000000e+00
 0.000000e+00 0.000000e+00 0.000000e+00
 2.111959e-04 8.939386e-04 0.000000e+00
 -1.338917e-03 1.335364e-03 0.000000e+00
 0.000000e+00 0.000000e+00 0.000000e+00
 3.124515e-01 -1.972059e-01 0.000000e+00
 2.156839e-01 -2.562587e-01 0.000000e+00
 -1.954264e-02 -1.238876e-01 0.000000e+00
 -3.767287e-02 -1.404739e-01 0.000000e+00
 0.000000e+00 0.000000e+00 0.000000e+00
 3.652117e-02 -2.150493e-01 0.000000e+00
 3.459129e-02 -1.120907e-01 0.000000e+00
 3.876642e-02 -1.633433e-01 0.000000e+00
 1.675575e-02 -8.111058e-02 0.000000e+00
 0.000000e+00 0.000000e+00 0.000000e+00
 2.925231e-02 -1.937871e-01 0.000000e+00
 1.437868e-02 -1.277497e-01 0.000000e+00
 1.042411e-02 -9.608772e-03 0.000000e+00
 5.965367e-03 -3.968831e-03 0.000000e+00
 -5.234647e-04 -6.361161e-04 0.000000e+00
 2.426888e-03 -1.179761e-01 0.000000e+00
 5.260495e-03 -1.254166e-01 0.000000e+00
 0.000000e+00 0.000000e+00 0.000000e+00
 1.870377e-02 -6.584579e-03 0.000000e+00
 0.000000e+00 0.000000e+00 0.000000e+00
 0.000000e+00 0.000000e+00 0.000000e+00
 1.180452e-01 -2.901228e-02 0.000000e+00
 5.774506e-02 -5.478180e-03 0.000000e+00
 6.765281e-02 -1.214544e-02 0.000000e+00
 5.047163e-03 -2.009660e-01 0.000000e+00
 9.580437e-04 -7.811671e-02 0.000000e+00
 9.635618e-04 -7.522637e-02 0.000000e+00
 0.000000e+00 0.000000e+00 0.000000e+00
 2.172192e-02 -2.575566e-02 0.000000e+00
 7.101333e-03 -1.045496e-02 0.000000e+00
 4.478210e-02 -1.117830e-02 0.000000e+00
 0.000000e+00 0.000000e+00 0.000000e+00
 7.359600e-02 -5.146099e-03 0.000000e+00
 0.000000e+00 0.000000e+00 0.000000e+00
 1.437678e-01 -6.440383e-03 0.000000e+00
 1.276140e-01 -8.502593e-03 0.000000e+00
 0.000000e+00 0.000000e+00 0.000000e+00
 3.114935e-01 -6.212609e-02 0.000000e+00
 2.427537e-01 -4.791829e-02 0.000000e+00
 2.901478e-01 -9.365284e-02 0.000000e+00
 1.253646e-01 -9.419267e-04 0.000000e+00
 1.196575e-01 -2.399538e-03 0.000000e+00
 0.000000e+00 0.000000e+00 0.000000e+00
 2.788022e-01 -6.133112e-03 0.000000e+00
 1.855247e-01 -4.750663e-04 0.000000e+00
 1.727998e-01 2.079219e-02 0.000000e+00
 1.053204e-01 8.814905e-03 0.000000e+00
 6.562858e-02 1.120476e-02 0.000000e+00
 6.456467e-03 -1.803341e-01 0.000000e+00
 1.059643e-03 -6.317078e-02 0.000000e+00
 2.260972e-03 -1.117109e-01 0.000000e+00
 1.361885e-03 -5.923763e-02 0.000000e+00
 0.000000e+00 0.000000e+00 0.000000e+00
 1.614500e-01 -3.129210e-01 0.000000e+00
 2.027490e-01 -2.858378e-01 0.000000e+00
 1.582478e-01 -2.727582e-01 0.000000e+00
 1.799029e-02 -1.919480e-01 0.000000e+00
 5.612209e-02 -2.393913e-01 0.000000e+00
 0.000000e+00 0.000000e+00 0.000000e+00
 3.059927e-02 -2.991084e-01 0.000000e+00
 7.650009e-03 -1.475244e-01 0.000000e+00
 1.019390e-02 -2.378299e-01 0.000000e+00
 2.325284e-03 -1.092372e-01 0.000000e+00
 4.332115e-03 -1.340875e-01 0.000000e+00
 1.200060e-03 -1.045675e-01 0.000000e+00
 0.000000e+00 0.000000e+00 0.000000e+00
 1.429525e-02 -3.877824e-01 0.000000e+00
 2.289052e-02 -3.281126e-01 0.000000e+00
 2.036707e-02 -3.522165e-01 0.000000e+00
 1.601333e-01 1.114404e-02 0.000000e+00
 5.219179e-02 2.272579e-03 0.000000e+00
 2.070207e-01 3.206268e-02 0.000000e+00
 8.998259e-02 2.822316e-02 0.000000e+00
 1.512019e-01 3.426978e-02 0.000000e+00
 2.974261e-01 1.657481e-03 0.000000e+00
 1.412064e-01 1.854476e-03 0.000000e+00
 1.863383e-01 1.488325e-03 0.000000e+00
 1.908605e-01 1.582060e-02 0.000000e+00
 6.026611e-02 4.387936e-03 0.000000e+00
 1.119272e-01 7.405002e-03 0.000000e+00
 2.560685e-01 4.469510e-03 0.000000e+00
 1.315223e-01 1.721886e-03 0.000000e+00
 0.000000e+00 0.000000e+00 0.000000e+00
 5.004143e-02 4.679077e-03 0.000000e+00
 0.000000e+00 0.000000e+00 0.000000e+00
 2.118802e-03 -5.587523e-02 0.000000e+00
 1.826881e-03 -6.202698e-02 0.000000e+00
 0.000000e+00 0.000000e+00 0.000000e+00
 1.635215e-02 -1.951060e-01 0.000000e+00
 1.428175e-02 -2.112681e-01 0.000000e+00
 2.566455e-02 -2.675273e-01 0.000000e+00
 -7.536182e-03 -1.373844e-01 0.000000e+00
 -1.109989e-03 -1.294425e-01 0.000000e+00
 0.000000e+00 0.000000e+00 0.000000e+00
 2.077550e-02 -1.353714e-01 0.000000e+00
 3.221740e-03 -4.240006e-02 0.000000e+00
 7.655512e-03 -8.337800e-02 0.000000e+00
 4.309760e-01 9.083211e-03 0.000000e+00
 4.293708e-01 8.367976e-03 0.000000e+00
 4.116208e-01 6.808686e-04 0.000000e+00
 5.314314e-02 3.918894e-03 0.000000e+00
 5.853050e-02 5.818929e-03 0.000000e+00
 0.000000e+00 0.000000e+00 0.000000e+00
 3.049505e-03 -3.329311e-02 0.000000e+00
 0.000000e+00 0.000000e+00 0.000000e+00
 5.432872e-03 -2.805809e-02 0.000000e+00
 5.791146e-03 -4.024278e-02 0.000000e+00
 0.000000e+00 0.000000e+00 0.000000e+00
 -3.214436e-03 -4.185036e-01 0.000000e+00
 5.231948e-03 -4.192363e-01 0.000000e+00
 2.598220e-03 -4.192152e-01 0.000000e+00
 -2.437580e-02 -3.270655e-01 0.000000e+00
 -1.262311e-02 -3.898067e-01 0.000000e+00
 -1.739902e-02 -3.686635e-01 0.000000e+00
 2.640456e-01 -2.267589e-02 0.000000e+00
 1.731184e-01 -3.159586e-02 0.000000e+00
 1.287520e-01 -1.057479e-03 0.000000e+00
 1.290290e-01 1.241836e-03 0.000000e+00
 0.000000e+00 0.000000e+00 0.000000e+00
 4.608039e-01 5.043788e-03 0.000000e+00
 4.597274e-01 -1.308303e-02 0.000000e+00
 4.566554e-01 -2.237968e-03 0.000000e+00
 4.227465e-01 1.610984e-02 0.000000e+00
 4.250034e-01 1.089448e-02 0.000000e+00
 -2.544405e-02 -3.020333e-01 0.000000e+00
 -3.484372e-02 -2.559193e-01 0.000000e+00
 -3.982988e-02 -1.812437e-01 0.000000e+00
 2.197121e-01 -1.614120e-01 0.000000e+00
 1.842124e-01 -1.902439e-01 0.000000e+00
 2.363211e-01 -2.141050e-01 0.000000e+00
 1.353164e-01 -1.670702e-01 0.000000e+00
 1.470199e-01 -2.178250e-01 0.000000e+00
 5.643564e-02 -4.081746e-01 0.000000e+00
 4.063462e-02 -4.174003e-01 0.000000e+00
 5.388557e-02 -4.306190e-01 0.000000e+00
 3.300881e-01 -7.101489e-03 0.000000e+00
 3.543599e-01 -9.761752e-03 0.000000e+00
 4.051803e-01 -8.206394e-03 0.000000e+00
 4.474450e-01 -1.354672e-02 0.000000e+00
 4.365840e-01 -2.685722e-02 0.000000e+00
 3.336561e-01 2.585112e-02 0.000000e+00
 3.957498e-01 2.235024e-02 0.000000e+00
 3.548022e-01 2.411202e-02 0.000000e+00
 2.468479e-02 -4.417181e-01 0.000000e+00
 3.476829e-02 -4.432490e-01 0.000000e+00
 2.834899e-02 -4.417156e-01 0.000000e+00
 -1.691357e-02 -3.207392e-01 0.000000e+00
 -1.949705e-02 -2.371175e-01 0.000000e+00
 4.288193e-01 -1.285792e-01 0.000000e+00
 4.025959e-01 -1.768742e-01 0.000000e+00
 4.158837e-01 -1.535381e-01 0.000000e+00
 2.307214e-03 -3.847193e-03 0.000000e+00
 3.214790e-03 -1.144126e-02 0.000000e+00
 0.000000e+00 0.000000e+00 0.000000e+00
 3.798248e-01 -8.270436e-03 0.000000e+00
 5.750406e-02 -1.400044e-01 0.000000e+00
 8.776437e-02 -1.342134e-01 0.000000e+00
 4.590879e-02 -9.501457e-02 0.000000e+00
 4.410527e-01 -9.370052e-02 0.000000e+00
 4.492651e-01 -5.927257e-02 0.000000e+00
 4.523781e-01 -5.480471e-02 0.000000e+00
 3.952493e-01 -9.690705e-02 0.000000e+00
 4.071533e-01 -5.782527e-02 0.000000e+00
 3.673416e-01 -6.877169e-02 0.000000e+00
 2.015042e-02 -3.175134e-01 0.000000e+00
 3.117212e-02 -2.529232e-01 0.000000e+00
 -2.083980e-03 -4.206321e-01 0.000000e+00
 1.905959e-03 -4.147480e-01 0.000000e+00
 3.474979e-03 -4.330645e-01 0.000000e+00
 2.151689e-02 -3.946960e-01 0.000000e+00
 2.671032e-02 -4.280640e-01 0.000000e+00
 3.089472e-02 -4.116059e-01 0.000000e+00
 3.016536e-02 -2.173288e-01 0.000000e+00
 4.984557e-02 -2.970548e-01 0.000000e+00
 5.230792e-02 -2.640028e-01 0.000000e+00
 1.069251e-01 -4.122273e-01 0.000000e+00
 1.105318e-01 -3.691637e-01 0.000000e+00
 8.003745e-02 -3.816522e-01 0.000000e+00
 2.348923e-01 -3.673843e-01 0.000000e+00
 1.474332e-01 -3.201048e-01 0.000000e+00
 2.348462e-01 -4.245693e-03 0.000000e+00
 0.000000e+00 0.000000e+00 0.000000e+00
 3.111553e-01 2.412674e-02 0.000000e+00
 2.442994e-01 2.768913e-02 0.000000e+00
 4.000678e-01 8.111439e-03 0.000000e+00
 4.409014e-01 1.526133e-02 0.000000e+00
 4.366439e-01 1.329915e-02 0.000000e+00
 3.979101e-02 -3.037165e-01 0.000000e+00
 6.147828e-02 -3.421450e-01 0.000000e+00
 1.523043e-02 -3.989476e-01 0.000000e+00
 1.587026e-02 -3.774002e-01 0.000000e+00
 1.261045e-02 -3.525370e-01 0.000000e+00
 6.774383e-02 -4.395728e-01 0.000000e+00
 7.406856e-02 -4.317833e-01 0.000000e+00
 9.165633e-02 -4.329295e-01 0.000000e+00
 4.205779e-01 2.220159e-02 0.000000e+00
 4.423970e-01 1.894189e-02 0.000000e+00
 4.273309e-01 2.486952e-02 0.000000e+00
 4.040234e-01 -3.628676e-03 0.000000e+00
 4.243633e-01 4.194585e-03 0.000000e+00
 3.575916e-01 2.336887e-03 0.000000e+00
 4.284153e-01 2.347831e-02 0.000000e+00
 4.353669e-01 2.548058e-02 0.000000e+00
 4.513953e-01 2.117906e-02 0.000000e+00
 3.149244e-01 -1.877411e-01 0.000000e+00
 3.565107e-01 -1.465136e-01 0.000000e+00
 3.163203e-01 -1.438889e-01 0.000000e+00
 3.864178e-01 -1.063978e-01 0.000000e+00
 3.735674e-01 -1.692993e-01 0.000000e+00
 1.433895e-01 -8.575408e-02 0.000000e+00
 2.027079e-01 -1.080462e-01 0.000000e+00
 1.633324e-01 -5.766832e-02 0.000000e+00
 1.441574e-01 -2.063696e-02 0.000000e+00
 9.439050e-02 -6.212423e-03 0.000000e+00
 1.144173e-01 -2.375072e-01 0.000000e+00
 7.745489e-02 -1.947692e-01 0.000000e+00
 8.716702e-02 -2.465930e-01 0.000000e+00
 4.350411e-01 -4.998986e-02 0.000000e+00
 4.042722e-01 -3.497012e-02 0.000000e+00
 7.308525e-03 -4.353554e-01 0.000000e+00
 1.040180e-02 -4.403625e-01 0.000000e+00
 1.030829e-02 -3.880542e-01 0.000000e+00
 1.185757e-02 -4.271873e-01 0.000000e+00
 6.005663e-03 -3.999138e-01 0.000000e+00
 1.535988e-02 -3.086616e-01 0.000000e+00
 2.309190e-02 -3.298648e-01 0.000000e+00
 1.386106e-02 -2.596170e-01 0.000000e+00
 9.205419e-03 -4.212952e-01 0.000000e+00
 6.094887e-02 -3.049744e-02 0.000000e+00
 5.122902e-02 -4.884129e-02 0.000000e+00
 9.424021e-02 -6.697014e-02 0.000000e+00
 1.847683e-02 -5.163601e-02 0.000000e+00
 3.667214e-02 -5.619453e-02 0.000000e+00
 1.163085e-02 -3.203421e-01 0.000000e+00
 8.919790e-03 -2.826998e-01 0.000000e+00
 1.350364e-02 -4.127233e-01 0.000000e+00
 1.387532e-02 -3.787446e-01 0.000000e+00
 1.220598e-02 -4.113984e-01 0.000000e+00
 4.423995e-01 -1.383057e-02 0.000000e+00
 3.946358e-01 -1.195783e-02 0.000000e+00
 2.379340e-01 -1.571021e-02 0.000000e+00
 3.085355e-01 -3.436592e-02 0.000000e+00
 3.126525e-01 -2.015116e-02 0.000000e+00
 5.708162e-02 -3.963432e-01 0.000000e+00
 8.862140e-02 -4.093514e-01 0.000000e+00
 3.521111e-01 -2.604303e-01 0.000000e+00
 1.280615e-01 1.710399e-03 0.000000e+00
 0.000000e+00 0.000000e+00 0.000000e+00
 3.565383e-01 -1.549789e-02 0.000000e+00
 9.397765e-02 -2.790014e-01 0.000000e+00
 7.323068e-02 -2.950491e-01 0.000000e+00
 9.842643e-02 -3.143788e-01 0.000000e+00
 1.792620e-02 -8.974229e-02 0.000000e+00
 3.077224e-02 -1.454282e-01 0.000000e+00
 3.843236e-02 -1.356814e-01 0.000000e+00
 -7.610930e-05 -3.681496e-01 0.000000e+00
 -8.842598e-03 -3.356189e-01 0.000000e+00
 -2.625931e-03 -2.966258e-01 0.000000e+00
 2.484274e-01 -3.102169e-01 0.000000e+00
 2.221577e-01 -3.506895e-01 0.000000e+00
 2.706143e-01 -3.273668e-01 0.000000e+00
 3.092358e-02 -3.798654e-01 0.000000e+00
 3.174275e-02 -3.442805e-01 0.000000e+00
 2.183584e-03 -4.191152e-02 0.000000e+00
 2.151517e-03 -4.935815e-02 0.000000e+00
 0.000000e+00 0.000000e+00 0.000000e+00
 4.527169e-02 -3.707516e-01 0.000000e+00
 6.293107e-02 -3.919964e-01 0.000000e+00
 1.772419e-01 -3.648567e-01 0.000000e+00
 1.414193e-01 -3.460708e-01 0.000000e+00
 4.755502e-02 -2.272583e-01 0.000000e+00
 6.260038e-02 -2.260763e-01 0.000000e+00
 4.136900e-02 -1.939543e-01 0.000000e+00
 4.297210e-01 1.285040e-02 0.000000e+00
 4.525251e-01 1.811529e-02 0.000000e+00
 2.863944e-01 -1.552030e-03 0.000000e+00
 2.600545e-01 1.486345e-02 0.000000e+00
 3.570343e-01 7.245902e-03 0.000000e+00
 3.832146e-01 -1.693283e-01 0.000000e+00
 3.823005e-01 -1.276605e-01 0.000000e+00
 4.184627e-01 -5.922150e-02 0.000000e+00
 3.347040e-01 -4.827937e-02 0.000000e+00
 2.565726e-01 -1.229987e-01 0.000000e+00
 3.119551e-01 -3.099273e-01 0.000000e+00
 2.714112e-01 -3.538764e-01 0.000000e+00
 0.000000e+00 0.000000e+00 0.000000e+00
 4.606499e-02 -4.421486e-01 0.000000e+00
 3.909441e-02 -4.319916e-01 0.000000e+00
 2.579357e-02 -4.152193e-01 0.000000e+00
 3.366111e-02 -4.063033e-01 0.000000e+00
 1.529191e-02 -4.400559e-01 0.000000e+00
 1.410986e-02 -4.399190e-01 0.000000e+00
 3.326236e-01 2.628879e-02 0.000000e+00
 3.716240e-01 2.574226e-02 0.000000e+00
 2.891823e-01 2.383540e-02 0.000000e+00
 4.402767e-01 9.392543e-03 0.000000e+00
 3.864350e-01 1.383066e-02 0.000000e+00
 4.122609e-01 1.804599e-02 0.000000e+00
 3.370465e-01 5.951289e-03 0.000000e+00
 3.419966e-01 9.823487e-04 0.000000e+00
 1.476584e-01 1.238511e-02 0.000000e+00
 2.440385e-01 1.969386e-02 0.000000e+00
 3.893605e-01 2.744831e-02 0.000000e+00
 1.166642e-01 -1.163871e-01 0.000000e+00
 1.091594e-01 -3.868345e-01 0.000000e+00
 1.338126e-01 -4.222410e-01 0.000000e+00
 6.271851e-03 -2.824352e-01 0.000000e+00
 1.268722e-02 -3.088378e-01 0.000000e+00
 1.171343e-02 -3.564309e-01 0.000000e+00
 1.192623e-03 -1.874075e-01 0.000000e+00
 3.580246e-02 -3.738122e-01 0.000000e+00
 2.031454e-02 -3.288638e-01 0.000000e+00
 1.816930e-01 -4.315550e-02 0.000000e+00
 2.031349e-01 -2.511649e-02 0.000000e+00
 2.069402e-01 -4.564721e-02 0.000000e+00
 5.681461e-03 -1.313713e-01 0.000000e+00
 1.162050e-02 -2.150513e-01 0.000000e+00
 5.251123e-03 -1.971728e-01 0.000000e+00
 7.240038e-03 -2.500740e-01 0.000000e+00
 1.006335e-02 -2.772238e-01 0.000000e+00
 2.053616e-02 -4.357727e-01 0.000000e+00
 1.584822e-02 -4.260974e-01 0.000000e+00
 1.607810e-02 -3.470645e-01 0.000000e+00
 4.494033e-01 7.121049e-03 0.000000e+00
 4.258408e-01 9.450216e-03 0.000000e+00
 3.389105e-01 7.490374e-03 0.000000e+00
 3.261733e-01 6.571846e-03 0.000000e+00
 3.931676e-01 9.694395e-03 0.000000e+00
 -1.095628e-02 -3.778439e-01 0.000000e+00
 -6.503370e-03 -4.114725e-01 0.000000e+00
 1.393609e-02 -2.366537e-01 0.000000e+00
 1.511622e-02 -3.232795e-01 0.000000e+00
 1.321588e-01 -4.222830e-01 0.000000e+00
 1.687126e-01 -4.124428e-01 0.000000e+00
 2.123970e-01 -3.944587e-01 0.000000e+00
 1.887511e-01 -3.868215e-01 0.000000e+00
 2.134581e-01 -1.733736e-02 0.000000e+00
 4.220808e-01 -1.087259e-01 0.000000e+00
 3.257890e-01 2.469363e-02 0.000000e+00
 4.547709e-01 -3.113321e-02 0.000000e+00
 2.890638e-01 -2.292281e-01 0.000000e+00
 2.452342e-01 -2.674497e-01 0.000000e+00